 CRYSTAL
 PRIMVEC
   2.71467801000000        2.71467801000000       0.000000000000000E+000
   2.71467801000000       0.000000000000000E+000   2.71467801000000     
  0.000000000000000E+000   2.71467801000000        2.71467801000000     
 PRIMCOORD
           2  1
   14    0.00000000    0.00000000    0.00000000
   14    1.35733901    1.35733901    1.35733901
 
 BEGIN_BLOCK_DATAGRID_3D
 squared modulus
 BEGIN_DATAGRID_3D
          11          11          11
  0.000000000000000E+000  0.000000000000000E+000  0.000000000000000E+000
   2.71467801000000        2.71467801000000       0.000000000000000E+000
   2.71467801000000       0.000000000000000E+000   2.71467801000000     
  0.000000000000000E+000   2.71467801000000        2.71467801000000     
    0.2027570704E+01    0.5044159650E-05    0.7575635765E-02    0.5306614387E-02    0.3584619749E-02    0.3129446817E-02    0.3584619741E-02    0.5306614375E-02
    0.7575635756E-02    0.5044159685E-05    0.2027570704E+01    0.5044159650E-05    0.7449793175E-02    0.7555337961E-02    0.5660476449E-02    0.4945725787E-02
    0.4945725793E-02    0.5660476428E-02    0.7555337937E-02    0.7449793194E-02    0.5044158753E-05    0.5044159650E-05    0.7575635765E-02    0.7555337961E-02
    0.6718452038E-02    0.6551713229E-02    0.6424142203E-02    0.6551713231E-02    0.6718451974E-02    0.7555337922E-02    0.7575635784E-02    0.6396056324E-02
    0.7575635765E-02    0.5306614387E-02    0.5660476449E-02    0.6551713229E-02    0.6739426155E-02    0.6739426165E-02    0.6551713220E-02    0.5660476377E-02
    0.5306614340E-02    0.5370381840E-02    0.5370381846E-02    0.5306614387E-02    0.3584619749E-02    0.4945725787E-02    0.6424142203E-02    0.6739426165E-02
    0.6424142226E-02    0.4945725804E-02    0.3584619727E-02    0.2935691490E-02    0.2778645850E-02    0.2935691520E-02    0.3584619749E-02    0.3129446817E-02
    0.4945725793E-02    0.6551713231E-02    0.6551713220E-02    0.4945725804E-02    0.3129446849E-02    0.2014687733E-02    0.1571923527E-02    0.1571923532E-02
    0.2014687725E-02    0.3129446817E-02    0.3584619741E-02    0.5660476428E-02    0.6718451974E-02    0.5660476377E-02    0.3584619727E-02    0.2014687733E-02
    0.1259985027E-02    0.1053603940E-02    0.1259985021E-02    0.2014687719E-02    0.3584619741E-02    0.5306614375E-02    0.7555337937E-02    0.7555337922E-02
    0.5306614340E-02    0.2935691490E-02    0.1571923527E-02    0.1053603940E-02    0.1053603937E-02    0.1571923531E-02    0.2935691516E-02    0.5306614375E-02
    0.7575635756E-02    0.7449793194E-02    0.7575635784E-02    0.5370381840E-02    0.2778645850E-02    0.1571923532E-02    0.1259985021E-02    0.1571923531E-02
    0.2778645868E-02    0.5370381840E-02    0.7575635756E-02    0.5044159685E-05    0.5044158753E-05    0.6396056324E-02    0.5370381846E-02    0.2935691520E-02
    0.2014687725E-02    0.2014687719E-02    0.2935691516E-02    0.5370381840E-02    0.6396056290E-02    0.5044159685E-05    0.2027570704E+01    0.5044159650E-05
    0.7575635765E-02    0.5306614387E-02    0.3584619749E-02    0.3129446817E-02    0.3584619741E-02    0.5306614375E-02    0.7575635756E-02    0.5044159685E-05
    0.2027570704E+01    0.5044159650E-05    0.7449793175E-02    0.7555337961E-02    0.5660476449E-02    0.4945725787E-02    0.4945725793E-02    0.5660476428E-02
    0.7555337937E-02    0.7449793194E-02    0.5044158753E-05    0.5044159650E-05    0.7449793175E-02    0.8991685651E-02    0.8074273931E-02    0.7658668063E-02
    0.7205870057E-02    0.7658668096E-02    0.8074273898E-02    0.8991685628E-02    0.7449793209E-02    0.4140534011E-02    0.7449793175E-02    0.7555337961E-02
    0.8074273931E-02    0.8634098906E-02    0.5863349743E-02    0.5863349771E-02    0.8634098922E-02    0.8074273880E-02    0.7555337955E-02    0.7143090579E-02
    0.7143090561E-02    0.7555337961E-02    0.5660476449E-02    0.7658668063E-02    0.5863349743E-02    0.1620815293E-02    0.5863349773E-02    0.7658668068E-02
    0.5660476411E-02    0.4583190875E-02    0.4317111935E-02    0.4583190894E-02    0.5660476449E-02    0.4945725787E-02    0.7205870057E-02    0.5863349771E-02
    0.5863349773E-02    0.7205870078E-02    0.4945725812E-02    0.3114914981E-02    0.2401980656E-02    0.2401980668E-02    0.3114914991E-02    0.4945725787E-02
    0.4945725793E-02    0.7658668096E-02    0.8634098922E-02    0.7658668068E-02    0.4945725812E-02    0.2728093497E-02    0.1672660167E-02    0.1392861275E-02
    0.1672660167E-02    0.2728093471E-02    0.4945725793E-02    0.5660476428E-02    0.8074273898E-02    0.8074273880E-02    0.5660476411E-02    0.3114914981E-02
    0.1672660167E-02    0.1127417401E-02    0.1127417401E-02    0.1672660162E-02    0.3114914975E-02    0.5660476428E-02    0.7555337937E-02    0.8991685628E-02
    0.7555337955E-02    0.4583190875E-02    0.2401980656E-02    0.1392861275E-02    0.1127417401E-02    0.1392861277E-02    0.2401980675E-02    0.4583190891E-02
    0.7555337937E-02    0.7449793194E-02    0.7449793209E-02    0.7143090579E-02    0.4317111935E-02    0.2401980668E-02    0.1672660167E-02    0.1672660162E-02
    0.2401980675E-02    0.4317111968E-02    0.7143090578E-02    0.7449793194E-02    0.5044158753E-05    0.4140534011E-02    0.7143090561E-02    0.4583190894E-02
    0.3114914991E-02    0.2728093471E-02    0.3114914975E-02    0.4583190891E-02    0.7143090578E-02    0.4140534019E-02    0.5044158753E-05    0.5044159650E-05
    0.7449793175E-02    0.7555337961E-02    0.5660476449E-02    0.4945725787E-02    0.4945725793E-02    0.5660476428E-02    0.7555337937E-02    0.7449793194E-02
    0.5044158753E-05    0.5044159650E-05    0.7575635765E-02    0.7555337961E-02    0.6718452038E-02    0.6551713229E-02    0.6424142203E-02    0.6551713231E-02
    0.6718451974E-02    0.7555337922E-02    0.7575635784E-02    0.6396056324E-02    0.7575635765E-02    0.7555337961E-02    0.8074273931E-02    0.8634098906E-02
    0.5863349743E-02    0.5863349771E-02    0.8634098922E-02    0.8074273880E-02    0.7555337955E-02    0.7143090579E-02    0.7143090561E-02    0.7555337961E-02
    0.6718452038E-02    0.8634098906E-02    0.1978144787E-02    0.9045208759E-02    0.1978144812E-02    0.8634098908E-02    0.6718452013E-02    0.5411343027E-02
    0.5095598851E-02    0.5411343020E-02    0.6718452038E-02    0.6551713229E-02    0.5863349743E-02    0.9045208759E-02    0.9045208753E-02    0.5863349742E-02
    0.6551713226E-02    0.4092968589E-02    0.3123892158E-02    0.3123892163E-02    0.4092968601E-02    0.6551713229E-02    0.6424142203E-02    0.5863349771E-02
    0.1978144812E-02    0.5863349742E-02    0.6424142198E-02    0.3609092802E-02    0.2159861253E-02    0.1782816907E-02    0.2159861260E-02    0.3609092790E-02
    0.6424142203E-02    0.6551713231E-02    0.8634098922E-02    0.8634098908E-02    0.6551713226E-02    0.3609092802E-02    0.1902845630E-02    0.1263299969E-02
    0.1263299972E-02    0.1902845621E-02    0.3609092773E-02    0.6551713231E-02    0.6718451974E-02    0.8074273880E-02    0.6718452013E-02    0.4092968589E-02
    0.2159861253E-02    0.1263299969E-02    0.1024928794E-02    0.1263299972E-02    0.2159861248E-02    0.4092968560E-02    0.6718451974E-02    0.7555337922E-02
    0.7555337955E-02    0.5411343027E-02    0.3123892158E-02    0.1782816907E-02    0.1263299972E-02    0.1263299972E-02    0.1782816921E-02    0.3123892181E-02
    0.5411343005E-02    0.7555337922E-02    0.7575635784E-02    0.7143090579E-02    0.5095598851E-02    0.3123892163E-02    0.2159861260E-02    0.1902845621E-02
    0.2159861248E-02    0.3123892181E-02    0.5095598892E-02    0.7143090589E-02    0.7575635784E-02    0.6396056324E-02    0.7143090561E-02    0.5411343020E-02
    0.4092968601E-02    0.3609092790E-02    0.3609092773E-02    0.4092968560E-02    0.5411343005E-02    0.7143090589E-02    0.6396056341E-02    0.6396056324E-02
    0.7575635765E-02    0.7555337961E-02    0.6718452038E-02    0.6551713229E-02    0.6424142203E-02    0.6551713231E-02    0.6718451974E-02    0.7555337922E-02
    0.7575635784E-02    0.6396056324E-02    0.7575635765E-02    0.5306614387E-02    0.5660476449E-02    0.6551713229E-02    0.6739426155E-02    0.6739426165E-02
    0.6551713220E-02    0.5660476377E-02    0.5306614340E-02    0.5370381840E-02    0.5370381846E-02    0.5306614387E-02    0.5660476449E-02    0.7658668063E-02
    0.5863349743E-02    0.1620815293E-02    0.5863349773E-02    0.7658668068E-02    0.5660476411E-02    0.4583190875E-02    0.4317111935E-02    0.4583190894E-02
    0.5660476449E-02    0.6551713229E-02    0.5863349743E-02    0.9045208759E-02    0.9045208753E-02    0.5863349742E-02    0.6551713226E-02    0.4092968589E-02
    0.3123892158E-02    0.3123892163E-02    0.4092968601E-02    0.6551713229E-02    0.6739426155E-02    0.1620815293E-02    0.9045208753E-02    0.1620815264E-02
    0.6739426118E-02    0.4037080331E-02    0.2393238592E-02    0.1967172369E-02    0.2393238599E-02    0.4037080336E-02    0.6739426155E-02    0.6739426165E-02
    0.5863349773E-02    0.5863349742E-02    0.6739426118E-02    0.4096266641E-02    0.2121904483E-02    0.1384535910E-02    0.1384535914E-02    0.2121904479E-02
    0.4096266643E-02    0.6739426165E-02    0.6551713220E-02    0.7658668068E-02    0.6551713226E-02    0.4037080331E-02    0.2121904483E-02    0.1221126959E-02
    0.9834834457E-03    0.1221126960E-02    0.2121904465E-02    0.4037080305E-02    0.6551713220E-02    0.5660476377E-02    0.5660476411E-02    0.4092968589E-02
    0.2393238592E-02    0.1384535910E-02    0.9834834457E-03    0.9834834493E-03    0.1384535918E-02    0.2393238583E-02    0.4092968544E-02    0.5660476377E-02
    0.5306614340E-02    0.4583190875E-02    0.3123892158E-02    0.1967172369E-02    0.1384535914E-02    0.1221126960E-02    0.1384535918E-02    0.1967172392E-02
    0.3123892174E-02    0.4583190857E-02    0.5306614340E-02    0.5370381840E-02    0.4317111935E-02    0.3123892163E-02    0.2393238599E-02    0.2121904479E-02
    0.2121904465E-02    0.2393238583E-02    0.3123892174E-02    0.4317111959E-02    0.5370381848E-02    0.5370381840E-02    0.5370381846E-02    0.4583190894E-02
    0.4092968601E-02    0.4037080336E-02    0.4096266643E-02    0.4037080305E-02    0.4092968544E-02    0.4583190857E-02    0.5370381848E-02    0.5664067637E-02
    0.5370381846E-02    0.5306614387E-02    0.5660476449E-02    0.6551713229E-02    0.6739426155E-02    0.6739426165E-02    0.6551713220E-02    0.5660476377E-02
    0.5306614340E-02    0.5370381840E-02    0.5370381846E-02    0.5306614387E-02    0.3584619749E-02    0.4945725787E-02    0.6424142203E-02    0.6739426165E-02
    0.6424142226E-02    0.4945725804E-02    0.3584619727E-02    0.2935691490E-02    0.2778645850E-02    0.2935691520E-02    0.3584619749E-02    0.4945725787E-02
    0.7205870057E-02    0.5863349771E-02    0.5863349773E-02    0.7205870078E-02    0.4945725812E-02    0.3114914981E-02    0.2401980656E-02    0.2401980668E-02
    0.3114914991E-02    0.4945725787E-02    0.6424142203E-02    0.5863349771E-02    0.1978144812E-02    0.5863349742E-02    0.6424142198E-02    0.3609092802E-02
    0.2159861253E-02    0.1782816907E-02    0.2159861260E-02    0.3609092790E-02    0.6424142203E-02    0.6739426165E-02    0.5863349773E-02    0.5863349742E-02
    0.6739426118E-02    0.4096266641E-02    0.2121904483E-02    0.1384535910E-02    0.1384535914E-02    0.2121904479E-02    0.4096266643E-02    0.6739426165E-02
    0.6424142226E-02    0.7205870078E-02    0.6424142198E-02    0.4096266641E-02    0.2143038512E-02    0.1218382899E-02    0.9763244238E-03    0.1218382899E-02
    0.2143038496E-02    0.4096266642E-02    0.6424142226E-02    0.4945725804E-02    0.4945725812E-02    0.3609092802E-02    0.2121904483E-02    0.1218382899E-02
    0.8567995330E-03    0.8567995352E-03    0.1218382897E-02    0.2121904465E-02    0.3609092780E-02    0.4945725804E-02    0.3584619727E-02    0.3114914981E-02
    0.2159861253E-02    0.1384535910E-02    0.9763244238E-03    0.8567995352E-03    0.9763244289E-03    0.1384535919E-02    0.2159861251E-02    0.3114914965E-02
    0.3584619727E-02    0.2935691490E-02    0.2401980656E-02    0.1782816907E-02    0.1384535914E-02    0.1218382899E-02    0.1218382897E-02    0.1384535919E-02
    0.1782816925E-02    0.2401980666E-02    0.2935691489E-02    0.2935691490E-02    0.2778645850E-02    0.2401980668E-02    0.2159861260E-02    0.2121904479E-02
    0.2143038496E-02    0.2121904465E-02    0.2159861251E-02    0.2401980666E-02    0.2778645847E-02    0.2972323873E-02    0.2778645850E-02    0.2935691520E-02
    0.3114914991E-02    0.3609092790E-02    0.4096266643E-02    0.4096266642E-02    0.3609092780E-02    0.3114914965E-02    0.2935691489E-02    0.2972323873E-02
    0.2972323887E-02    0.2935691520E-02    0.3584619749E-02    0.4945725787E-02    0.6424142203E-02    0.6739426165E-02    0.6424142226E-02    0.4945725804E-02
    0.3584619727E-02    0.2935691490E-02    0.2778645850E-02    0.2935691520E-02    0.3584619749E-02    0.3129446817E-02    0.4945725793E-02    0.6551713231E-02
    0.6551713220E-02    0.4945725804E-02    0.3129446849E-02    0.2014687733E-02    0.1571923527E-02    0.1571923532E-02    0.2014687725E-02    0.3129446817E-02
    0.4945725793E-02    0.7658668096E-02    0.8634098922E-02    0.7658668068E-02    0.4945725812E-02    0.2728093497E-02    0.1672660167E-02    0.1392861275E-02
    0.1672660167E-02    0.2728093471E-02    0.4945725793E-02    0.6551713231E-02    0.8634098922E-02    0.8634098908E-02    0.6551713226E-02    0.3609092802E-02
    0.1902845630E-02    0.1263299969E-02    0.1263299972E-02    0.1902845621E-02    0.3609092773E-02    0.6551713231E-02    0.6551713220E-02    0.7658668068E-02
    0.6551713226E-02    0.4037080331E-02    0.2121904483E-02    0.1221126959E-02    0.9834834457E-03    0.1221126960E-02    0.2121904465E-02    0.4037080305E-02
    0.6551713220E-02    0.4945725804E-02    0.4945725812E-02    0.3609092802E-02    0.2121904483E-02    0.1218382899E-02    0.8567995330E-03    0.8567995352E-03
    0.1218382897E-02    0.2121904465E-02    0.3609092780E-02    0.4945725804E-02    0.3129446849E-02    0.2728093497E-02    0.1902845630E-02    0.1221126959E-02
    0.8567995330E-03    0.7494130884E-03    0.8567995342E-03    0.1221126957E-02    0.1902845624E-02    0.2728093491E-02    0.3129446849E-02    0.2014687733E-02
    0.1672660167E-02    0.1263299969E-02    0.9834834457E-03    0.8567995352E-03    0.8567995342E-03    0.9834834450E-03    0.1263299972E-02    0.1672660172E-02
    0.2014687735E-02    0.2014687733E-02    0.1571923527E-02    0.1392861275E-02    0.1263299972E-02    0.1221126960E-02    0.1218382897E-02    0.1221126957E-02
    0.1263299972E-02    0.1392861278E-02    0.1571923529E-02    0.1660955255E-02    0.1571923527E-02    0.1571923532E-02    0.1672660167E-02    0.1902845621E-02
    0.2121904465E-02    0.2121904465E-02    0.1902845624E-02    0.1672660172E-02    0.1571923529E-02    0.1567207535E-02    0.1567207539E-02    0.1571923532E-02
    0.2014687725E-02    0.2728093471E-02    0.3609092773E-02    0.4037080305E-02    0.3609092780E-02    0.2728093491E-02    0.2014687735E-02    0.1660955255E-02
    0.1567207539E-02    0.1660955262E-02    0.2014687725E-02    0.3129446817E-02    0.4945725793E-02    0.6551713231E-02    0.6551713220E-02    0.4945725804E-02
    0.3129446849E-02    0.2014687733E-02    0.1571923527E-02    0.1571923532E-02    0.2014687725E-02    0.3129446817E-02    0.3584619741E-02    0.5660476428E-02
    0.6718451974E-02    0.5660476377E-02    0.3584619727E-02    0.2014687733E-02    0.1259985027E-02    0.1053603940E-02    0.1259985021E-02    0.2014687719E-02
    0.3584619741E-02    0.5660476428E-02    0.8074273898E-02    0.8074273880E-02    0.5660476411E-02    0.3114914981E-02    0.1672660167E-02    0.1127417401E-02
    0.1127417401E-02    0.1672660162E-02    0.3114914975E-02    0.5660476428E-02    0.6718451974E-02    0.8074273880E-02    0.6718452013E-02    0.4092968589E-02
    0.2159861253E-02    0.1263299969E-02    0.1024928794E-02    0.1263299972E-02    0.2159861248E-02    0.4092968560E-02    0.6718451974E-02    0.5660476377E-02
    0.5660476411E-02    0.4092968589E-02    0.2393238592E-02    0.1384535910E-02    0.9834834457E-03    0.9834834493E-03    0.1384535918E-02    0.2393238583E-02
    0.4092968544E-02    0.5660476377E-02    0.3584619727E-02    0.3114914981E-02    0.2159861253E-02    0.1384535910E-02    0.9763244238E-03    0.8567995352E-03
    0.9763244289E-03    0.1384535919E-02    0.2159861251E-02    0.3114914965E-02    0.3584619727E-02    0.2014687733E-02    0.1672660167E-02    0.1263299969E-02
    0.9834834457E-03    0.8567995352E-03    0.8567995342E-03    0.9834834450E-03    0.1263299972E-02    0.1672660172E-02    0.2014687735E-02    0.2014687733E-02
    0.1259985027E-02    0.1127417401E-02    0.1024928794E-02    0.9834834493E-03    0.9763244289E-03    0.9834834450E-03    0.1024928787E-02    0.1127417396E-02
    0.1259985028E-02    0.1324420716E-02    0.1259985027E-02    0.1053603940E-02    0.1127417401E-02    0.1263299972E-02    0.1384535918E-02    0.1384535919E-02
    0.1263299972E-02    0.1127417396E-02    0.1053603935E-02    0.1034596073E-02    0.1034596074E-02    0.1053603940E-02    0.1259985021E-02    0.1672660162E-02
    0.2159861248E-02    0.2393238583E-02    0.2159861251E-02    0.1672660172E-02    0.1259985028E-02    0.1034596073E-02    0.9675956167E-03    0.1034596072E-02
    0.1259985021E-02    0.2014687719E-02    0.3114914975E-02    0.4092968560E-02    0.4092968544E-02    0.3114914965E-02    0.2014687735E-02    0.1324420716E-02
    0.1034596074E-02    0.1034596072E-02    0.1324420704E-02    0.2014687719E-02    0.3584619741E-02    0.5660476428E-02    0.6718451974E-02    0.5660476377E-02
    0.3584619727E-02    0.2014687733E-02    0.1259985027E-02    0.1053603940E-02    0.1259985021E-02    0.2014687719E-02    0.3584619741E-02    0.5306614375E-02
    0.7555337937E-02    0.7555337922E-02    0.5306614340E-02    0.2935691490E-02    0.1571923527E-02    0.1053603940E-02    0.1053603937E-02    0.1571923531E-02
    0.2935691516E-02    0.5306614375E-02    0.7555337937E-02    0.8991685628E-02    0.7555337955E-02    0.4583190875E-02    0.2401980656E-02    0.1392861275E-02
    0.1127417401E-02    0.1392861277E-02    0.2401980675E-02    0.4583190891E-02    0.7555337937E-02    0.7555337922E-02    0.7555337955E-02    0.5411343027E-02
    0.3123892158E-02    0.1782816907E-02    0.1263299972E-02    0.1263299972E-02    0.1782816921E-02    0.3123892181E-02    0.5411343005E-02    0.7555337922E-02
    0.5306614340E-02    0.4583190875E-02    0.3123892158E-02    0.1967172369E-02    0.1384535914E-02    0.1221126960E-02    0.1384535918E-02    0.1967172392E-02
    0.3123892174E-02    0.4583190857E-02    0.5306614340E-02    0.2935691490E-02    0.2401980656E-02    0.1782816907E-02    0.1384535914E-02    0.1218382899E-02
    0.1218382897E-02    0.1384535919E-02    0.1782816925E-02    0.2401980666E-02    0.2935691489E-02    0.2935691490E-02    0.1571923527E-02    0.1392861275E-02
    0.1263299972E-02    0.1221126960E-02    0.1218382897E-02    0.1221126957E-02    0.1263299972E-02    0.1392861278E-02    0.1571923529E-02    0.1660955255E-02
    0.1571923527E-02    0.1053603940E-02    0.1127417401E-02    0.1263299972E-02    0.1384535918E-02    0.1384535919E-02    0.1263299972E-02    0.1127417396E-02
    0.1053603935E-02    0.1034596073E-02    0.1034596074E-02    0.1053603940E-02    0.1053603937E-02    0.1392861277E-02    0.1782816921E-02    0.1967172392E-02
    0.1782816925E-02    0.1392861278E-02    0.1053603935E-02    0.8613037340E-03    0.8023350230E-03    0.8613037360E-03    0.1053603937E-02    0.1571923531E-02
    0.2401980675E-02    0.3123892181E-02    0.3123892174E-02    0.2401980666E-02    0.1571923529E-02    0.1034596073E-02    0.8023350230E-03    0.8023350215E-03
    0.1034596070E-02    0.1571923531E-02    0.2935691516E-02    0.4583190891E-02    0.5411343005E-02    0.4583190857E-02    0.2935691489E-02    0.1660955255E-02
    0.1034596074E-02    0.8613037360E-03    0.1034596070E-02    0.1660955260E-02    0.2935691516E-02    0.5306614375E-02    0.7555337937E-02    0.7555337922E-02
    0.5306614340E-02    0.2935691490E-02    0.1571923527E-02    0.1053603940E-02    0.1053603937E-02    0.1571923531E-02    0.2935691516E-02    0.5306614375E-02
    0.7575635756E-02    0.7449793194E-02    0.7575635784E-02    0.5370381840E-02    0.2778645850E-02    0.1571923532E-02    0.1259985021E-02    0.1571923531E-02
    0.2778645868E-02    0.5370381840E-02    0.7575635756E-02    0.7449793194E-02    0.7449793209E-02    0.7143090579E-02    0.4317111935E-02    0.2401980668E-02
    0.1672660167E-02    0.1672660162E-02    0.2401980675E-02    0.4317111968E-02    0.7143090578E-02    0.7449793194E-02    0.7575635784E-02    0.7143090579E-02
    0.5095598851E-02    0.3123892163E-02    0.2159861260E-02    0.1902845621E-02    0.2159861248E-02    0.3123892181E-02    0.5095598892E-02    0.7143090589E-02
    0.7575635784E-02    0.5370381840E-02    0.4317111935E-02    0.3123892163E-02    0.2393238599E-02    0.2121904479E-02    0.2121904465E-02    0.2393238583E-02
    0.3123892174E-02    0.4317111959E-02    0.5370381848E-02    0.5370381840E-02    0.2778645850E-02    0.2401980668E-02    0.2159861260E-02    0.2121904479E-02
    0.2143038496E-02    0.2121904465E-02    0.2159861251E-02    0.2401980666E-02    0.2778645847E-02    0.2972323873E-02    0.2778645850E-02    0.1571923532E-02
    0.1672660167E-02    0.1902845621E-02    0.2121904465E-02    0.2121904465E-02    0.1902845624E-02    0.1672660172E-02    0.1571923529E-02    0.1567207535E-02
    0.1567207539E-02    0.1571923532E-02    0.1259985021E-02    0.1672660162E-02    0.2159861248E-02    0.2393238583E-02    0.2159861251E-02    0.1672660172E-02
    0.1259985028E-02    0.1034596073E-02    0.9675956167E-03    0.1034596072E-02    0.1259985021E-02    0.1571923531E-02    0.2401980675E-02    0.3123892181E-02
    0.3123892174E-02    0.2401980666E-02    0.1571923529E-02    0.1034596073E-02    0.8023350230E-03    0.8023350215E-03    0.1034596070E-02    0.1571923531E-02
    0.2778645868E-02    0.4317111968E-02    0.5095598892E-02    0.4317111959E-02    0.2778645847E-02    0.1567207535E-02    0.9675956167E-03    0.8023350215E-03
    0.9675956160E-03    0.1567207547E-02    0.2778645868E-02    0.5370381840E-02    0.7143090578E-02    0.7143090589E-02    0.5370381848E-02    0.2972323873E-02
    0.1567207539E-02    0.1034596072E-02    0.1034596070E-02    0.1567207547E-02    0.2972323893E-02    0.5370381840E-02    0.7575635756E-02    0.7449793194E-02
    0.7575635784E-02    0.5370381840E-02    0.2778645850E-02    0.1571923532E-02    0.1259985021E-02    0.1571923531E-02    0.2778645868E-02    0.5370381840E-02
    0.7575635756E-02    0.5044159685E-05    0.5044158753E-05    0.6396056324E-02    0.5370381846E-02    0.2935691520E-02    0.2014687725E-02    0.2014687719E-02
    0.2935691516E-02    0.5370381840E-02    0.6396056290E-02    0.5044159685E-05    0.5044158753E-05    0.4140534011E-02    0.7143090561E-02    0.4583190894E-02
    0.3114914991E-02    0.2728093471E-02    0.3114914975E-02    0.4583190891E-02    0.7143090578E-02    0.4140534019E-02    0.5044158753E-05    0.6396056324E-02
    0.7143090561E-02    0.5411343020E-02    0.4092968601E-02    0.3609092790E-02    0.3609092773E-02    0.4092968560E-02    0.5411343005E-02    0.7143090589E-02
    0.6396056341E-02    0.6396056324E-02    0.5370381846E-02    0.4583190894E-02    0.4092968601E-02    0.4037080336E-02    0.4096266643E-02    0.4037080305E-02
    0.4092968544E-02    0.4583190857E-02    0.5370381848E-02    0.5664067637E-02    0.5370381846E-02    0.2935691520E-02    0.3114914991E-02    0.3609092790E-02
    0.4096266643E-02    0.4096266642E-02    0.3609092780E-02    0.3114914965E-02    0.2935691489E-02    0.2972323873E-02    0.2972323887E-02    0.2935691520E-02
    0.2014687725E-02    0.2728093471E-02    0.3609092773E-02    0.4037080305E-02    0.3609092780E-02    0.2728093491E-02    0.2014687735E-02    0.1660955255E-02
    0.1567207539E-02    0.1660955262E-02    0.2014687725E-02    0.2014687719E-02    0.3114914975E-02    0.4092968560E-02    0.4092968544E-02    0.3114914965E-02
    0.2014687735E-02    0.1324420716E-02    0.1034596074E-02    0.1034596072E-02    0.1324420704E-02    0.2014687719E-02    0.2935691516E-02    0.4583190891E-02
    0.5411343005E-02    0.4583190857E-02    0.2935691489E-02    0.1660955255E-02    0.1034596074E-02    0.8613037360E-03    0.1034596070E-02    0.1660955260E-02
    0.2935691516E-02    0.5370381840E-02    0.7143090578E-02    0.7143090589E-02    0.5370381848E-02    0.2972323873E-02    0.1567207539E-02    0.1034596072E-02
    0.1034596070E-02    0.1567207547E-02    0.2972323893E-02    0.5370381840E-02    0.6396056290E-02    0.4140534019E-02    0.6396056341E-02    0.5664067637E-02
    0.2972323887E-02    0.1660955262E-02    0.1324420704E-02    0.1660955260E-02    0.2972323893E-02    0.5664067603E-02    0.6396056290E-02    0.5044159685E-05
    0.5044158753E-05    0.6396056324E-02    0.5370381846E-02    0.2935691520E-02    0.2014687725E-02    0.2014687719E-02    0.2935691516E-02    0.5370381840E-02
    0.6396056290E-02    0.5044159685E-05    0.2027570704E+01    0.5044159650E-05    0.7575635765E-02    0.5306614387E-02    0.3584619749E-02    0.3129446817E-02
    0.3584619741E-02    0.5306614375E-02    0.7575635756E-02    0.5044159685E-05    0.2027570704E+01    0.5044159650E-05    0.7449793175E-02    0.7555337961E-02
    0.5660476449E-02    0.4945725787E-02    0.4945725793E-02    0.5660476428E-02    0.7555337937E-02    0.7449793194E-02    0.5044158753E-05    0.5044159650E-05
    0.7575635765E-02    0.7555337961E-02    0.6718452038E-02    0.6551713229E-02    0.6424142203E-02    0.6551713231E-02    0.6718451974E-02    0.7555337922E-02
    0.7575635784E-02    0.6396056324E-02    0.7575635765E-02    0.5306614387E-02    0.5660476449E-02    0.6551713229E-02    0.6739426155E-02    0.6739426165E-02
    0.6551713220E-02    0.5660476377E-02    0.5306614340E-02    0.5370381840E-02    0.5370381846E-02    0.5306614387E-02    0.3584619749E-02    0.4945725787E-02
    0.6424142203E-02    0.6739426165E-02    0.6424142226E-02    0.4945725804E-02    0.3584619727E-02    0.2935691490E-02    0.2778645850E-02    0.2935691520E-02
    0.3584619749E-02    0.3129446817E-02    0.4945725793E-02    0.6551713231E-02    0.6551713220E-02    0.4945725804E-02    0.3129446849E-02    0.2014687733E-02
    0.1571923527E-02    0.1571923532E-02    0.2014687725E-02    0.3129446817E-02    0.3584619741E-02    0.5660476428E-02    0.6718451974E-02    0.5660476377E-02
    0.3584619727E-02    0.2014687733E-02    0.1259985027E-02    0.1053603940E-02    0.1259985021E-02    0.2014687719E-02    0.3584619741E-02    0.5306614375E-02
    0.7555337937E-02    0.7555337922E-02    0.5306614340E-02    0.2935691490E-02    0.1571923527E-02    0.1053603940E-02    0.1053603937E-02    0.1571923531E-02
    0.2935691516E-02    0.5306614375E-02    0.7575635756E-02    0.7449793194E-02    0.7575635784E-02    0.5370381840E-02    0.2778645850E-02    0.1571923532E-02
    0.1259985021E-02    0.1571923531E-02    0.2778645868E-02    0.5370381840E-02    0.7575635756E-02    0.5044159685E-05    0.5044158753E-05    0.6396056324E-02
    0.5370381846E-02    0.2935691520E-02    0.2014687725E-02    0.2014687719E-02    0.2935691516E-02    0.5370381840E-02    0.6396056290E-02    0.5044159685E-05
    0.2027570704E+01    0.5044159650E-05    0.7575635765E-02    0.5306614387E-02    0.3584619749E-02    0.3129446817E-02    0.3584619741E-02    0.5306614375E-02
    0.7575635756E-02    0.5044159685E-05    0.2027570704E+01
 END_DATAGRID_3D
 END_BLOCK_DATAGRID_3D
 BEGIN_BLOCK_DATAGRID_3D
 real
 BEGIN_DATAGRID_3D
          11          11          11
  0.000000000000000E+000  0.000000000000000E+000  0.000000000000000E+000
   2.71467801000000        2.71467801000000       0.000000000000000E+000
   2.71467801000000       0.000000000000000E+000   2.71467801000000     
  0.000000000000000E+000   2.71467801000000        2.71467801000000     
   -0.1006868836E+01    0.1588105345E-02   -0.6154523557E-01   -0.5151025034E-01   -0.4233567047E-01   -0.3955657517E-01   -0.4233567041E-01   -0.5151025028E-01
   -0.6154523553E-01    0.1588105350E-02   -0.1006868836E+01    0.1588105345E-02   -0.6103191589E-01   -0.6146272955E-01   -0.5319997024E-01   -0.4972787627E-01
   -0.4972787630E-01   -0.5319997014E-01   -0.6146272945E-01   -0.6103191597E-01    0.1588105203E-02    0.1588105345E-02   -0.6154523557E-01   -0.6146272955E-01
   -0.5795881614E-01   -0.5723508544E-01   -0.5667512261E-01   -0.5723508544E-01   -0.5795881586E-01   -0.6146272939E-01   -0.6154523564E-01   -0.5655109716E-01
   -0.6154523557E-01   -0.5151025034E-01   -0.5319997024E-01   -0.5723508544E-01   -0.5804921551E-01   -0.5804921555E-01   -0.5723508539E-01   -0.5319996990E-01
   -0.5151025011E-01   -0.5181881512E-01   -0.5181881515E-01   -0.5151025034E-01   -0.4233567047E-01   -0.4972787627E-01   -0.5667512261E-01   -0.5804921555E-01
   -0.5667512271E-01   -0.4972787635E-01   -0.4233567033E-01   -0.3831246564E-01   -0.3727361321E-01   -0.3831246584E-01   -0.4233567047E-01   -0.3955657517E-01
   -0.4972787630E-01   -0.5723508544E-01   -0.5723508539E-01   -0.4972787635E-01   -0.3955657538E-01   -0.3173867312E-01   -0.2803500271E-01   -0.2803500276E-01
   -0.3173867306E-01   -0.3955657517E-01   -0.4233567041E-01   -0.5319997014E-01   -0.5795881586E-01   -0.5319996990E-01   -0.4233567033E-01   -0.3173867312E-01
   -0.2509964549E-01   -0.2295216136E-01   -0.2509964543E-01   -0.3173867301E-01   -0.4233567041E-01   -0.5151025028E-01   -0.6146272945E-01   -0.6146272939E-01
   -0.5151025011E-01   -0.3831246564E-01   -0.2803500271E-01   -0.2295216136E-01   -0.2295216133E-01   -0.2803500275E-01   -0.3831246582E-01   -0.5151025028E-01
   -0.6154523553E-01   -0.6103191597E-01   -0.6154523564E-01   -0.5181881512E-01   -0.3727361321E-01   -0.2803500276E-01   -0.2509964543E-01   -0.2803500275E-01