 CRYSTAL
 PRIMVEC
   2.71467801000000        2.71467801000000       0.000000000000000E+000
   2.71467801000000       0.000000000000000E+000   2.71467801000000     
  0.000000000000000E+000   2.71467801000000        2.71467801000000     
 PRIMCOORD
           2  1
   14    0.00000000    0.00000000    0.00000000
   14    1.35733901    1.35733901    1.35733901
 
 BEGIN_BLOCK_DATAGRID_3D
 squared modulus
 BEGIN_DATAGRID_3D
          11          11          11
  0.000000000000000E+000  0.000000000000000E+000  0.000000000000000E+000
   2.71467801000000        2.71467801000000       0.000000000000000E+000
   2.71467801000000       0.000000000000000E+000   2.71467801000000     
  0.000000000000000E+000   2.71467801000000        2.71467801000000     
    0.2263851146E+01    0.7836208855E-04    0.1194054286E-01    0.7476509748E-02    0.3427864702E-02    0.1152108550E-02    0.6953454090E-04    0.4514026532E-03
    0.2534987071E-02    0.3266090030E-04    0.2263851146E+01    0.2599532220E-04    0.1183529829E-01    0.1179309712E-01    0.7437104514E-02    0.4009525192E-02
    0.1371088920E-02    0.6062859277E-04    0.5495502319E-03    0.1867078222E-02    0.3266089407E-04    0.2599532220E-04    0.1019993930E-01    0.1173316344E-01
    0.1019332494E-01    0.7842693742E-02    0.4366140193E-02    0.1430057529E-02    0.5503201819E-04    0.5495502213E-03    0.2534987112E-02    0.5358715752E-02
    0.1019993930E-01    0.7345523439E-02    0.8834951527E-02    0.9608655534E-02    0.7628106124E-02    0.4183801350E-02    0.1430057510E-02    0.6062859675E-04
    0.4514026350E-03    0.2405213650E-02    0.5149213542E-02    0.7345523439E-02    0.5130220994E-02    0.7740787728E-02    0.9342714716E-02    0.7628106180E-02
    0.4366140189E-02    0.1371088894E-02    0.6953454471E-04    0.2745618184E-03    0.1424876652E-02    0.3063860700E-02    0.5130220994E-02    0.4548517653E-02
    0.7740787704E-02    0.9608655586E-02    0.7842693812E-02    0.4009525188E-02    0.1152108551E-02    0.7319932375E-04    0.1383333107E-03    0.8551478637E-03
    0.2208639771E-02    0.4548517653E-02    0.5130220947E-02    0.8834951394E-02    0.1019332484E-01    0.7437104406E-02    0.3427864669E-02    0.9509322918E-03
    0.7588636589E-04    0.8377291087E-04    0.7032206823E-03    0.2208639780E-02    0.5130220947E-02    0.7345523436E-02    0.1173316340E-01    0.1179309704E-01
    0.7476509630E-02    0.3159135803E-02    0.8729975814E-03    0.7804298730E-04    0.8377290725E-04    0.8551478667E-03    0.3063860733E-02    0.7345523436E-02
    0.1019993933E-01    0.1183529837E-01    0.1194054287E-01    0.7797106689E-02    0.3124594508E-02    0.8729975708E-03    0.7588636626E-04    0.1383333040E-03
    0.1424876659E-02    0.5149213561E-02    0.1019993933E-01    0.2599532261E-04    0.7836208109E-04    0.9851059564E-02    0.7797106716E-02    0.3159135823E-02
    0.9509322722E-03    0.7319932277E-04    0.2745618216E-03    0.2405213623E-02    0.5358715674E-02    0.2599532261E-04    0.2263851146E+01    0.7836208855E-04
    0.1194054286E-01    0.7476509748E-02    0.3427864702E-02    0.1152108550E-02    0.6953454090E-04    0.4514026532E-03    0.2534987071E-02    0.3266090030E-04
    0.2263851146E+01    0.2599532220E-04    0.1183529829E-01    0.1179309712E-01    0.7437104514E-02    0.4009525192E-02    0.1371088920E-02    0.6062859277E-04
    0.5495502319E-03    0.1867078222E-02    0.3266089407E-04    0.2599532220E-04    0.1024930600E-01    0.1404987600E-01    0.1232146558E-01    0.9213164185E-02
    0.4726968083E-02    0.1502902369E-02    0.6222649363E-04    0.5326895367E-03    0.1867078247E-02    0.3185574160E-02    0.1024930600E-01    0.1053005445E-01
    0.1274189281E-01    0.1288929865E-01    0.6689512835E-02    0.2743345761E-02    0.1330745562E-02    0.6222649836E-04    0.5495502226E-03    0.2863585628E-02
    0.6774491570E-02    0.1053005445E-01    0.8299370263E-02    0.1212510241E-01    0.8966860502E-02    0.1929045525E-02    0.2743345738E-02    0.1502902343E-02
    0.6062860050E-04    0.4536797391E-03    0.2271547138E-02    0.4938234723E-02    0.8299370263E-02    0.7453025435E-02    0.1146118009E-01    0.8966860576E-02
    0.6689512892E-02    0.4726968038E-02    0.1371088906E-02    0.4990856373E-04    0.2965312002E-03    0.1479937770E-02    0.3653352318E-02    0.7453025435E-02
    0.7453025408E-02    0.1212510242E-01    0.1288929875E-01    0.9213164225E-02    0.4009525202E-02    0.9682163966E-03    0.3702886349E-04    0.1947026550E-03
    0.1134397851E-02    0.3311154819E-02    0.7453025408E-02    0.8299370151E-02    0.1274189274E-01    0.1232146552E-01    0.7437104431E-02    0.2914472137E-02
    0.7050384764E-03    0.3098419382E-04    0.1665023954E-03    0.1134397865E-02    0.3653352324E-02    0.8299370151E-02    0.1053005446E-01    0.1404987601E-01
    0.1179309705E-01    0.6389082331E-02    0.2450084132E-02    0.6327948342E-03    0.3098419597E-04    0.1947026497E-03    0.1479937798E-02    0.4938234740E-02
    0.1053005446E-01    0.1024930608E-01    0.1183529838E-01    0.1127251475E-01    0.6149675515E-02    0.2450084119E-02    0.7050384633E-03    0.3702886715E-04
    0.2965311971E-03    0.2271547143E-02    0.6774491563E-02    0.1024930608E-01    0.2599532602E-04    0.6614571679E-02    0.1127251476E-01    0.6389082394E-02
    0.2914472116E-02    0.9682163862E-03    0.4990856248E-04    0.4536797464E-03    0.2863585575E-02    0.3185574133E-02    0.2599532602E-04    0.2599532220E-04
    0.1183529829E-01    0.1179309712E-01    0.7437104514E-02    0.4009525192E-02    0.1371088920E-02    0.6062859277E-04    0.5495502319E-03    0.1867078222E-02
    0.3266089407E-04    0.2599532220E-04    0.1019993930E-01    0.1173316344E-01    0.1019332494E-01    0.7842693742E-02    0.4366140193E-02    0.1430057529E-02
    0.5503201819E-04    0.5495502213E-03    0.2534987112E-02    0.5358715752E-02    0.1019993930E-01    0.1053005445E-01    0.1274189281E-01    0.1288929865E-01
    0.6689512835E-02    0.2743345761E-02    0.1330745562E-02    0.6222649836E-04    0.5495502226E-03    0.2863585628E-02    0.6774491570E-02    0.1053005445E-01
    0.9927603770E-02    0.1376587583E-01    0.3337459304E-02    0.6150247836E-02    0.3360616722E-03    0.1330745557E-02    0.5503202640E-04    0.5335586841E-03
    0.2679765054E-02    0.5888524897E-02    0.9927603770E-02    0.9972832145E-02    0.9236057041E-02    0.1460389699E-01    0.6150247857E-02    0.2743345695E-02
    0.1430057515E-02    0.3547145984E-04    0.4391613976E-03    0.2038532928E-02    0.4958888004E-02    0.9972832145E-02    0.9850975580E-02    0.9236057086E-02
    0.3337459374E-02    0.6689512827E-02    0.4366140148E-02    0.1000943561E-02    0.1545721853E-04    0.3365460074E-03    0.1648657910E-02    0.4640612619E-02
    0.9850975580E-02    0.9972832090E-02    0.1376587586E-01    0.1288929871E-01    0.7842693777E-02    0.2877566792E-02    0.5944948550E-03    0.5600532823E-05
    0.2905342054E-03    0.1549214212E-02    0.4640612600E-02    0.9972832090E-02    0.9927603621E-02    0.1274189274E-01    0.1019332485E-01    0.5274048859E-02
    0.1889794222E-02    0.4194736366E-03    0.3360630871E-05    0.2905342077E-03    0.1648657934E-02    0.4958887936E-02    0.9927603621E-02    0.1053005447E-01
    0.1173316343E-01    0.8372464653E-02    0.4203248709E-02    0.1623541394E-02    0.4194736386E-03    0.5600534487E-05    0.3365460123E-03    0.2038532943E-02
    0.5888524871E-02    0.1053005447E-01    0.1019993940E-01    0.1106654782E-01    0.7940478869E-02    0.4203248717E-02    0.1889794194E-02    0.5944948570E-03
    0.1545721979E-04    0.4391614012E-03    0.2679765034E-02    0.6774491597E-02    0.1019993940E-01    0.8596804422E-02    0.1106654779E-01    0.8372464726E-02
    0.5274048873E-02    0.2877566757E-02    0.1000943563E-02    0.3547145509E-04    0.5335586844E-03    0.2863585587E-02    0.5358715767E-02    0.8596804422E-02
    0.1019993930E-01    0.1173316344E-01    0.1019332494E-01    0.7842693742E-02    0.4366140193E-02    0.1430057529E-02    0.5503201819E-04    0.5495502213E-03
    0.2534987112E-02    0.5358715752E-02    0.1019993930E-01    0.7345523439E-02    0.8834951527E-02    0.9608655534E-02    0.7628106124E-02    0.4183801350E-02
    0.1430057510E-02    0.6062859675E-04    0.4514026350E-03    0.2405213650E-02    0.5149213542E-02    0.7345523439E-02    0.8299370263E-02    0.1212510241E-01
    0.8966860502E-02    0.1929045525E-02    0.2743345738E-02    0.1502902343E-02    0.6062860050E-04    0.4536797391E-03    0.2271547138E-02    0.4938234723E-02
    0.8299370263E-02    0.9972832145E-02    0.9236057041E-02    0.1460389699E-01    0.6150247857E-02    0.2743345695E-02    0.1430057515E-02    0.3547145984E-04
    0.4391613976E-03    0.2038532928E-02    0.4958888004E-02    0.9972832145E-02    0.1029695686E-01    0.1934061764E-02    0.1460389695E-01    0.1929045468E-02
    0.4183801271E-02    0.1012354511E-02    0.9540099776E-05    0.4064081113E-03    0.1897204944E-02    0.5279060658E-02    0.1029695686E-01    0.1029695687E-01
    0.9236057118E-02    0.8966860539E-02    0.7628106092E-02    0.2936332209E-02    0.5481521737E-03    0.1880190375E-06    0.3924234799E-03    0.1892884816E-02
    0.5490699112E-02    0.1029695687E-01    0.9972832108E-02    0.1212510243E-01    0.9608655561E-02    0.4816538664E-02    0.1611062359E-02    0.2983815173E-03
    0.1110959923E-05    0.3943920562E-03    0.1892884814E-02    0.5279060600E-02    0.9972832108E-02    0.8299370122E-02    0.8834951389E-02    0.6100813041E-02
    0.2965667603E-02    0.1082033817E-02    0.2333013895E-03    0.1110959758E-05    0.3924234886E-03    0.1897204942E-02    0.4958887910E-02    0.8299370122E-02
    0.7345523422E-02    0.7041841574E-02    0.4708896557E-02    0.2482933489E-02    0.1082033816E-02    0.2983815253E-03    0.1880191221E-06    0.4064081197E-03
    0.2038532923E-02    0.4938234705E-02    0.7345523422E-02    0.7116484714E-02    0.6601679552E-02    0.4708896588E-02    0.2965667598E-02    0.1611062346E-02
    0.5481521768E-03    0.9540098798E-05    0.4391613952E-03    0.2271547123E-02    0.5149213590E-02    0.7116484714E-02    0.7116484672E-02    0.7041841639E-02
    0.6100813111E-02    0.4816538623E-02    0.2936332208E-02    0.1012354502E-02    0.3547145486E-04    0.4536797301E-03    0.2405213636E-02    0.5178071404E-02
    0.7116484672E-02    0.7345523439E-02    0.8834951527E-02    0.9608655534E-02    0.7628106124E-02    0.4183801350E-02    0.1430057510E-02    0.6062859675E-04
    0.4514026350E-03    0.2405213650E-02    0.5149213542E-02    0.7345523439E-02    0.5130220994E-02    0.7740787728E-02    0.9342714716E-02    0.7628106180E-02
    0.4366140189E-02    0.1371088894E-02    0.6953454471E-04    0.2745618184E-03    0.1424876652E-02    0.3063860700E-02    0.5130220994E-02    0.7453025435E-02
    0.1146118009E-01    0.8966860576E-02    0.6689512892E-02    0.4726968038E-02    0.1371088906E-02    0.4990856373E-04    0.2965312002E-03    0.1479937770E-02
    0.3653352318E-02    0.7453025435E-02    0.9850975580E-02    0.9236057086E-02    0.3337459374E-02    0.6689512827E-02    0.4366140148E-02    0.1000943561E-02
    0.1545721853E-04    0.3365460074E-03    0.1648657910E-02    0.4640612619E-02    0.9850975580E-02    0.1029695687E-01    0.9236057118E-02    0.8966860539E-02
    0.7628106092E-02    0.2936332209E-02    0.5481521737E-03    0.1880190375E-06    0.3924234799E-03    0.1892884816E-02    0.5490699112E-02    0.1029695687E-01
    0.9850975638E-02    0.1146118016E-01    0.9342714739E-02    0.4740429948E-02    0.1539153024E-02    0.2617110864E-03    0.4510912812E-05    0.4413775540E-03
    0.2018479837E-02    0.5490699104E-02    0.9850975638E-02    0.7453025449E-02    0.7740787753E-02    0.5247259866E-02    0.2477310241E-02    0.8473305989E-03
    0.1534779023E-03    0.9255786086E-05    0.4413775537E-03    0.1892884798E-02    0.4640612597E-02    0.7453025449E-02    0.5130220924E-02    0.4753587645E-02
    0.3130335133E-02    0.1623525194E-02    0.6683728754E-03    0.1534779036E-03    0.4510912949E-05    0.3924234831E-03    0.1648657916E-02    0.3653352294E-02
    0.5130220924E-02    0.3978657160E-02    0.3604833295E-02    0.2587261391E-02    0.1623525200E-02    0.8473306049E-03    0.2617110882E-03    0.1880190584E-06
    0.3365460096E-03    0.1479937778E-02    0.3063860691E-02    0.3978657160E-02    0.3685632071E-02    0.3604833306E-02    0.3130335140E-02    0.2477310231E-02
    0.1539153016E-02    0.5481521678E-03    0.1545721839E-04    0.2965311927E-03    0.1424876641E-02    0.2868977066E-02    0.3685632071E-02    0.3978657185E-02
    0.4753587689E-02    0.5247259840E-02    0.4740429926E-02    0.2936332212E-02    0.1000943543E-02    0.4990856231E-04    0.2745618121E-03    0.1419435656E-02
    0.2868977066E-02    0.3978657185E-02    0.5130220994E-02    0.7740787728E-02    0.9342714716E-02    0.7628106180E-02    0.4366140189E-02    0.1371088894E-02
    0.6953454471E-04    0.2745618184E-03    0.1424876652E-02    0.3063860700E-02    0.5130220994E-02    0.4548517653E-02    0.7740787704E-02    0.9608655586E-02
    0.7842693812E-02    0.4009525188E-02    0.1152108551E-02    0.7319932375E-04    0.1383333107E-03    0.8551478637E-03    0.2208639771E-02    0.4548517653E-02
    0.7453025408E-02    0.1212510242E-01    0.1288929875E-01    0.9213164225E-02    0.4009525202E-02    0.9682163966E-03    0.3702886349E-04    0.1947026550E-03
    0.1134397851E-02    0.3311154819E-02    0.7453025408E-02    0.9972832090E-02    0.1376587586E-01    0.1288929871E-01    0.7842693777E-02    0.2877566792E-02
    0.5944948550E-03    0.5600532823E-05    0.2905342054E-03    0.1549214212E-02    0.4640612600E-02    0.9972832090E-02    0.9972832108E-02    0.1212510243E-01
    0.9608655561E-02    0.4816538664E-02    0.1611062359E-02    0.2983815173E-03    0.1110959923E-05    0.3943920562E-03    0.1892884814E-02    0.5279060600E-02
    0.9972832108E-02    0.7453025449E-02    0.7740787753E-02    0.5247259866E-02    0.2477310241E-02    0.8473305989E-03    0.1534779023E-03    0.9255786086E-05
    0.4413775537E-03    0.1892884798E-02    0.4640612597E-02    0.7453025449E-02    0.4548517662E-02    0.4161754329E-02    0.2714266210E-02    0.1383555277E-02
    0.5492951029E-03    0.1145905260E-03    0.9255786189E-05    0.3943920497E-03    0.1549214216E-02    0.3311154835E-02    0.4548517662E-02    0.2768962312E-02
    0.2480030943E-02    0.1779144817E-02    0.1098838008E-02    0.5492951035E-03    0.1534778985E-03    0.1110959692E-05    0.2905342093E-03    0.1134397882E-02
    0.2208639777E-02    0.2768962312E-02    0.2067173603E-02    0.2041643646E-02    0.1779144819E-02    0.1383555292E-02    0.8473305933E-03    0.2983815185E-03
    0.5600534104E-05    0.1947026576E-03    0.8551478651E-03    0.1636537596E-02    0.2067173603E-02    0.2067173593E-02    0.2480030911E-02    0.2714266196E-02
    0.2477310225E-02    0.1611062336E-02    0.5944948536E-03    0.3702886540E-04    0.1383333060E-03    0.7346364023E-03    0.1475656804E-02    0.2067173593E-02
    0.2768962299E-02    0.4161754288E-02    0.5247259827E-02    0.4816538640E-02    0.2877566760E-02    0.9682163808E-03    0.7319932397E-04    0.1209199346E-03
    0.7346364130E-03    0.1636537608E-02    0.2768962299E-02    0.4548517653E-02    0.7740787704E-02    0.9608655586E-02    0.7842693812E-02    0.4009525188E-02
    0.1152108551E-02    0.7319932375E-04    0.1383333107E-03    0.8551478637E-03    0.2208639771E-02    0.4548517653E-02    0.5130220947E-02    0.8834951394E-02
    0.1019332484E-01    0.7437104406E-02    0.3427864669E-02    0.9509322918E-03    0.7588636589E-04    0.8377291087E-04    0.7032206823E-03    0.2208639780E-02
    0.5130220947E-02    0.8299370151E-02    0.1274189274E-01    0.1232146552E-01    0.7437104431E-02    0.2914472137E-02    0.7050384764E-03    0.3098419382E-04
    0.1665023954E-03    0.1134397865E-02    0.3653352324E-02    0.8299370151E-02    0.9927603621E-02    0.1274189274E-01    0.1019332485E-01    0.5274048859E-02
    0.1889794222E-02    0.4194736366E-03    0.3360630871E-05    0.2905342077E-03    0.1648657934E-02    0.4958887936E-02    0.9927603621E-02    0.8299370122E-02
    0.8834951389E-02    0.6100813041E-02    0.2965667603E-02    0.1082033817E-02    0.2333013895E-03    0.1110959758E-05    0.3924234886E-03    0.1897204942E-02
    0.4958887910E-02    0.8299370122E-02    0.5130220924E-02    0.4753587645E-02    0.3130335133E-02    0.1623525194E-02    0.6683728754E-03    0.1534779036E-03
    0.4510912949E-05    0.3924234831E-03    0.1648657916E-02    0.3653352294E-02    0.5130220924E-02    0.2768962312E-02    0.2480030943E-02    0.1779144817E-02
    0.1098838008E-02    0.5492951035E-03    0.1534778985E-03    0.1110959692E-05    0.2905342093E-03    0.1134397882E-02    0.2208639777E-02    0.2768962312E-02
    0.1653832218E-02    0.1637306887E-02    0.1425404563E-02    0.1098838020E-02    0.6683728651E-03    0.2333013889E-03    0.3360631610E-05    0.1665024053E-03
    0.7032206934E-03    0.1318622758E-02    0.1653832218E-02    0.1352734201E-02    0.1637306874E-02    0.1779144844E-02    0.1623525209E-02    0.1082033812E-02
    0.4194736526E-03    0.3098419564E-04    0.8377291214E-04    0.4678067524E-03    0.9491231285E-03    0.1352734201E-02    0.1653832183E-02    0.2480030916E-02
    0.3130335140E-02    0.2965667579E-02    0.1889794208E-02    0.7050384776E-03    0.7588636536E-04    0.4928366079E-04    0.3972961911E-03    0.9491231311E-03
    0.1653832183E-02    0.2768962291E-02    0.4753587632E-02    0.6100813015E-02    0.5274048807E-02    0.2914472098E-02    0.9509322808E-03    0.9881198734E-04
    0.4928366256E-04    0.4678067647E-03    0.1318622759E-02    0.2768962291E-02    0.5130220947E-02    0.8834951394E-02    0.1019332484E-01    0.7437104406E-02
    0.3427864669E-02    0.9509322918E-03    0.7588636589E-04    0.8377291087E-04    0.7032206823E-03    0.2208639780E-02    0.5130220947E-02    0.7345523436E-02
    0.1173316340E-01    0.1179309704E-01    0.7476509630E-02    0.3159135803E-02    0.8729975814E-03    0.7804298730E-04    0.8377290725E-04    0.8551478667E-03
    0.3063860733E-02    0.7345523436E-02    0.1053005446E-01    0.1404987601E-01    0.1179309705E-01    0.6389082331E-02    0.2450084132E-02    0.6327948342E-03
    0.3098419597E-04    0.1947026497E-03    0.1479937798E-02    0.4938234740E-02    0.1053005446E-01    0.1053005447E-01    0.1173316343E-01    0.8372464653E-02
    0.4203248709E-02    0.1623541394E-02    0.4194736386E-03    0.5600534487E-05    0.3365460123E-03    0.2038532943E-02    0.5888524871E-02    0.1053005447E-01
    0.7345523422E-02    0.7041841574E-02    0.4708896557E-02    0.2482933489E-02    0.1082033816E-02    0.2983815253E-03    0.1880191221E-06    0.4064081197E-03
    0.2038532923E-02    0.4938234705E-02    0.7345523422E-02    0.3978657160E-02    0.3604833295E-02    0.2587261391E-02    0.1623525200E-02    0.8473306049E-03
    0.2617110882E-03    0.1880190584E-06    0.3365460096E-03    0.1479937778E-02    0.3063860691E-02    0.3978657160E-02    0.2067173603E-02    0.2041643646E-02
    0.1779144819E-02    0.1383555292E-02    0.8473305933E-03    0.2983815185E-03    0.5600534104E-05    0.1947026576E-03    0.8551478651E-03    0.1636537596E-02
    0.2067173603E-02    0.1352734201E-02    0.1637306874E-02    0.1779144844E-02    0.1623525209E-02    0.1082033812E-02    0.4194736526E-03    0.3098419564E-04
    0.8377291214E-04    0.4678067524E-03    0.9491231285E-03    0.1352734201E-02    0.1352734185E-02    0.2041643660E-02    0.2587261437E-02    0.2482933498E-02
    0.1623541418E-02    0.6327948516E-03    0.7804298518E-04    0.3234116573E-04    0.3083022358E-03    0.7619410154E-03    0.1352734185E-02    0.2067173589E-02
    0.3604833326E-02    0.4708896580E-02    0.4203248707E-02    0.2450084132E-02    0.8729975703E-03    0.1183141973E-03    0.1975548804E-04    0.3083022418E-03
    0.9491231234E-03    0.2067173589E-02    0.3978657187E-02    0.7041841594E-02    0.8372464658E-02    0.6389082320E-02    0.3159135785E-02    0.9843522794E-03
    0.1183141994E-03    0.3234116683E-04    0.4678067598E-03    0.1636537610E-02    0.3978657187E-02    0.7345523436E-02    0.1173316340E-01    0.1179309704E-01
    0.7476509630E-02    0.3159135803E-02    0.8729975814E-03    0.7804298730E-04    0.8377290725E-04    0.8551478667E-03    0.3063860733E-02    0.7345523436E-02
    0.1019993933E-01    0.1183529837E-01    0.1194054287E-01    0.7797106689E-02    0.3124594508E-02    0.8729975708E-03    0.7588636626E-04    0.1383333040E-03
    0.1424876659E-02    0.5149213561E-02    0.1019993933E-01    0.1024930608E-01    0.1183529838E-01    0.1127251475E-01    0.6149675515E-02    0.2450084119E-02
    0.7050384633E-03    0.3702886715E-04    0.2965311971E-03    0.2271547143E-02    0.6774491563E-02    0.1024930608E-01    0.1019993940E-01    0.1106654782E-01
    0.7940478869E-02    0.4203248717E-02    0.1889794194E-02    0.5944948570E-03    0.1545721979E-04    0.4391614012E-03    0.2679765034E-02    0.6774491597E-02
    0.1019993940E-01    0.7116484714E-02    0.6601679552E-02    0.4708896588E-02    0.2965667598E-02    0.1611062346E-02    0.5481521768E-03    0.9540098798E-05
    0.4391613952E-03    0.2271547123E-02    0.5149213590E-02    0.7116484714E-02    0.3685632071E-02    0.3604833306E-02    0.3130335140E-02    0.2477310231E-02
    0.1539153016E-02    0.5481521678E-03    0.1545721839E-04    0.2965311927E-03    0.1424876641E-02    0.2868977066E-02    0.3685632071E-02    0.2067173593E-02
    0.2480030911E-02    0.2714266196E-02    0.2477310225E-02    0.1611062336E-02    0.5944948536E-03    0.3702886540E-04    0.1383333060E-03    0.7346364023E-03
    0.1475656804E-02    0.2067173593E-02    0.1653832183E-02    0.2480030916E-02    0.3130335140E-02    0.2965667579E-02    0.1889794208E-02    0.7050384776E-03
    0.7588636536E-04    0.4928366079E-04    0.3972961911E-03    0.9491231311E-03    0.1653832183E-02    0.2067173589E-02    0.3604833326E-02    0.4708896580E-02
    0.4203248707E-02    0.2450084132E-02    0.8729975703E-03    0.1183141973E-03    0.1975548804E-04    0.3083022418E-03    0.9491231234E-03    0.2067173589E-02
    0.3685632101E-02    0.6601679616E-02    0.7940478942E-02    0.6149675551E-02    0.3124594490E-02    0.1014351412E-02    0.1375401336E-03    0.1975548855E-04
    0.3972961909E-03    0.1475656805E-02    0.3685632101E-02    0.7116484717E-02    0.1106654785E-01    0.1127251482E-01    0.7797106711E-02    0.3445570362E-02
    0.1014351422E-02    0.1183141979E-03    0.4928366065E-04    0.7346364084E-03    0.2868977088E-02    0.7116484717E-02    0.1019993933E-01    0.1183529837E-01
    0.1194054287E-01    0.7797106689E-02    0.3124594508E-02    0.8729975708E-03    0.7588636626E-04    0.1383333040E-03    0.1424876659E-02    0.5149213561E-02
    0.1019993933E-01    0.2599532261E-04    0.7836208109E-04    0.9851059564E-02    0.7797106716E-02    0.3159135823E-02    0.9509322722E-03    0.7319932277E-04
    0.2745618216E-03    0.2405213623E-02    0.5358715674E-02    0.2599532261E-04    0.2599532602E-04    0.6614571679E-02    0.1127251476E-01    0.6389082394E-02
    0.2914472116E-02    0.9682163862E-03    0.4990856248E-04    0.4536797464E-03    0.2863585575E-02    0.3185574133E-02    0.2599532602E-04    0.8596804422E-02
    0.1106654779E-01    0.8372464726E-02    0.5274048873E-02    0.2877566757E-02    0.1000943563E-02    0.3547145509E-04    0.5335586844E-03    0.2863585587E-02
    0.5358715767E-02    0.8596804422E-02    0.7116484672E-02    0.7041841639E-02    0.6100813111E-02    0.4816538623E-02    0.2936332208E-02    0.1012354502E-02
    0.3547145486E-04    0.4536797301E-03    0.2405213636E-02    0.5178071404E-02    0.7116484672E-02    0.3978657185E-02    0.4753587689E-02    0.5247259840E-02
    0.4740429926E-02    0.2936332212E-02    0.1000943543E-02    0.4990856231E-04    0.2745618121E-03    0.1419435656E-02    0.2868977066E-02    0.3978657185E-02
    0.2768962299E-02    0.4161754288E-02    0.5247259827E-02    0.4816538640E-02    0.2877566760E-02    0.9682163808E-03    0.7319932397E-04    0.1209199346E-03
    0.7346364130E-03    0.1636537608E-02    0.2768962299E-02    0.2768962291E-02    0.4753587632E-02    0.6100813015E-02    0.5274048807E-02    0.2914472098E-02
    0.9509322808E-03    0.9881198734E-04    0.4928366256E-04    0.4678067647E-03    0.1318622759E-02    0.2768962291E-02    0.3978657187E-02    0.7041841594E-02
    0.8372464658E-02    0.6389082320E-02    0.3159135785E-02    0.9843522794E-03    0.1183141994E-03    0.3234116683E-04    0.4678067598E-03    0.1636537610E-02
    0.3978657187E-02    0.7116484717E-02    0.1106654785E-01    0.1127251482E-01    0.7797106711E-02    0.3445570362E-02    0.1014351422E-02    0.1183141979E-03
    0.4928366065E-04    0.7346364084E-03    0.2868977088E-02    0.7116484717E-02    0.8596804380E-02    0.6614571725E-02    0.9851059609E-02    0.8285594183E-02
    0.3445570384E-02    0.9843522758E-03    0.9881198473E-04    0.1209199339E-03    0.1419435660E-02    0.5178071355E-02    0.8596804380E-02    0.2599532261E-04
    0.7836208109E-04    0.9851059564E-02    0.7797106716E-02    0.3159135823E-02    0.9509322722E-03    0.7319932277E-04    0.2745618216E-03    0.2405213623E-02
    0.5358715674E-02    0.2599532261E-04    0.2263851146E+01    0.7836208855E-04    0.1194054286E-01    0.7476509748E-02    0.3427864702E-02    0.1152108550E-02
    0.6953454090E-04    0.4514026532E-03    0.2534987071E-02    0.3266090030E-04    0.2263851146E+01    0.2599532220E-04    0.1183529829E-01    0.1179309712E-01
    0.7437104514E-02    0.4009525192E-02    0.1371088920E-02    0.6062859277E-04    0.5495502319E-03    0.1867078222E-02    0.3266089407E-04    0.2599532220E-04
    0.1019993930E-01    0.1173316344E-01    0.1019332494E-01    0.7842693742E-02    0.4366140193E-02    0.1430057529E-02    0.5503201819E-04    0.5495502213E-03
    0.2534987112E-02    0.5358715752E-02    0.1019993930E-01    0.7345523439E-02    0.8834951527E-02    0.9608655534E-02    0.7628106124E-02    0.4183801350E-02
    0.1430057510E-02    0.6062859675E-04    0.4514026350E-03    0.2405213650E-02    0.5149213542E-02    0.7345523439E-02    0.5130220994E-02    0.7740787728E-02
    0.9342714716E-02    0.7628106180E-02    0.4366140189E-02    0.1371088894E-02    0.6953454471E-04    0.2745618184E-03    0.1424876652E-02    0.3063860700E-02
    0.5130220994E-02    0.4548517653E-02    0.7740787704E-02    0.9608655586E-02    0.7842693812E-02    0.4009525188E-02    0.1152108551E-02    0.7319932375E-04
    0.1383333107E-03    0.8551478637E-03    0.2208639771E-02    0.4548517653E-02    0.5130220947E-02    0.8834951394E-02    0.1019332484E-01    0.7437104406E-02
    0.3427864669E-02    0.9509322918E-03    0.7588636589E-04    0.8377291087E-04    0.7032206823E-03    0.2208639780E-02    0.5130220947E-02    0.7345523436E-02
    0.1173316340E-01    0.1179309704E-01    0.7476509630E-02    0.3159135803E-02    0.8729975814E-03    0.7804298730E-04    0.8377290725E-04    0.8551478667E-03
    0.3063860733E-02    0.7345523436E-02    0.1019993933E-01    0.1183529837E-01    0.1194054287E-01    0.7797106689E-02    0.3124594508E-02    0.8729975708E-03
    0.7588636626E-04    0.1383333040E-03    0.1424876659E-02    0.5149213561E-02    0.1019993933E-01    0.2599532261E-04    0.7836208109E-04    0.9851059564E-02
    0.7797106716E-02    0.3159135823E-02    0.9509322722E-03    0.7319932277E-04    0.2745618216E-03    0.2405213623E-02    0.5358715674E-02    0.2599532261E-04
    0.2263851146E+01    0.7836208855E-04    0.1194054286E-01    0.7476509748E-02    0.3427864702E-02    0.1152108550E-02    0.6953454090E-04    0.4514026532E-03
    0.2534987071E-02    0.3266090030E-04    0.2263851146E+01
 END_DATAGRID_3D
 END_BLOCK_DATAGRID_3D
 BEGIN_BLOCK_DATAGRID_3D
 real
 BEGIN_DATAGRID_3D
          11          11          11
  0.000000000000000E+000  0.000000000000000E+000  0.000000000000000E+000
   2.71467801000000        2.71467801000000       0.000000000000000E+000
   2.71467801000000       0.000000000000000E+000   2.71467801000000     
  0.000000000000000E+000   2.71467801000000        2.71467801000000     
    0.1063919909E+01   -0.6259476358E-02    0.7726753152E-01    0.6114126981E-01    0.4139966608E-01    0.2400113070E-01    0.5896377740E-02   -0.1502335936E-01
   -0.3560187545E-01    0.4041095167E-02   -0.1063919909E+01    0.3605226914E-02    0.7692625784E-01    0.7678898723E-01    0.6097993323E-01    0.4477457533E-01
    0.2618290396E-01    0.5505842023E-02   -0.1657634206E-01   -0.3055387227E-01    0.4041094782E-02   -0.3605226914E-02    0.7141407179E-01    0.7659361408E-01
    0.7139091308E-01    0.6262065850E-01    0.4672333568E-01    0.2674002178E-01    0.5245570426E-02   -0.1657634190E-01   -0.3560187574E-01   -0.5176251420E-01
   -0.7141407179E-01    0.6060331443E-01    0.6646409379E-01    0.6931325823E-01    0.6175802022E-01    0.4573730070E-01    0.2674002160E-01    0.5505842204E-02
   -0.1502335906E-01   -0.3467862202E-01   -0.5074058308E-01   -0.6060331443E-01    0.5064691992E-01    0.6221248961E-01    0.6834732883E-01    0.6175802045E-01
    0.4672333565E-01    0.2618290372E-01    0.5896377901E-02   -0.1171669361E-01   -0.2669154035E-01   -0.3913988184E-01   -0.5064691992E-01    0.4768918983E-01
    0.6221248952E-01    0.6931325842E-01    0.6262065878E-01    0.4477457531E-01    0.2400113072E-01    0.6049765440E-02   -0.8316649287E-02   -0.2067786091E-01
   -0.3323130881E-01   -0.4768918983E-01    0.5064691969E-01    0.6646409329E-01    0.7139091271E-01    0.6097993279E-01    0.4139966587E-01    0.2180518622E-01
    0.6159803807E-02   -0.6471974616E-02   -0.1875127572E-01   -0.3323130889E-01   -0.5064691969E-01    0.6060331441E-01    0.7659361396E-01    0.7678898698E-01
    0.6114126933E-01    0.3974377815E-01    0.2089255348E-01    0.6246718630E-02   -0.6471974477E-02   -0.2067786095E-01   -0.3913988204E-01   -0.6060331441E-01
    0.7141407189E-01    0.7692625809E-01    0.7726753157E-01    0.6243839639E-01    0.3952590611E-01    0.2089255335E-01    0.6159803822E-02   -0.8316649085E-02