================================================================================
| EXCITING FLUORINE started                                                    =
| version hash id: 2e151628942e9389c8e6a29e14b6abdfcd3ebdcc                    =
|                                                                              =
| compiler: GNU Fortran (Ubuntu 9.4.0-1ubuntu1~20.04.1) 9.4.0                  =
|                                                                              =
| MPI version using      2 processor(s)                                        =
| |  using MPI-2 features                                                      =
|                                                                              =
| Date (DD-MM-YYYY) : 04-06-2023                                               =
| Time (hh:mm:ss)   : 14:56:07                                                 =
|                                                                              =
| All units are atomic (Hartree, Bohr, etc.)                                   =
================================================================================

********************************************************************************
* Ground-state run starting from atomic densities                              *
********************************************************************************

++++++++++++++++++++++++++++++++++++++++++++++++++++++++++++++++++++++++++++++++
+ Starting initialization                                                      +
++++++++++++++++++++++++++++++++++++++++++++++++++++++++++++++++++++++++++++++++

 Lattice vectors (cartesian) :
      6.0223290822      0.0000000000      0.0000000000
      3.0111645411      5.2154899753      0.0000000000
      0.0000000000      0.0000000000      9.7447508809

 Reciprocal lattice vectors (cartesian) :
      1.0433148407     -0.6023581041      0.0000000000
      0.0000000000      1.2047162083      0.0000000000
      0.0000000000      0.0000000000      0.6447763913

 Unit cell volume                           :     306.0767486565
 Brillouin zone volume                      :       0.8104183494

 Species :    1 (Ga)
     parameters loaded from                 :    Ga.xml
     name                                   :    gallium
     nuclear charge                         :     -31.00000000
     electronic charge                      :      31.00000000
     atomic mass                            :  127097.25380000
     muffin-tin radius                      :       1.35000000
     # of radial points in muffin-tin       :    1000

     atomic positions (lattice) :
       1 :   0.00000000  0.00000000  0.00000000
       2 :   0.33333333  0.33333333  0.50000000

 Species :    2 (N)
     parameters loaded from                 :    N.xml
     name                                   :    nitrogen
     nuclear charge                         :      -7.00000000
     electronic charge                      :       7.00000000
     atomic mass                            :   25532.72506000
     muffin-tin radius                      :       1.35000000
     # of radial points in muffin-tin       :    1000

     atomic positions (lattice) :
       1 :   0.33333333  0.33333333  0.87781160
       2 :   0.00000000  0.00000000  0.37781160

 Total number of atoms per unit cell        :       4

 Spin treatment                             :    spin-unpolarised

 Number of Bravais lattice symmetries       :      24
 Number of crystal symmetries               :      12

 k-point grid                               :       2    2    2
 Total number of k-points                   :       4
 k-point set is reduced with crystal symmetries

 R^MT_min * |G+k|_max (rgkmax)              :       6.00000000
 Species with R^MT_min                      :       1 (Ga)
 Maximum |G+k| for APW functions            :       4.44444444
 Maximum |G| for potential and density      :      14.00000000

 G-vector grid sizes                        :      27    27    45
 Total number of G-vectors                  :   14245

 Maximum angular momentum used for
     APW functions                          :       8
     computing H and O matrix elements      :       8
     potential and density                  :       8
     inner part of muffin-tin               :       2

 Total nuclear charge                       :     -76.00000000
 Total electronic charge                    :      76.00000000
 Total core charge                          :      24.00000000
 Total valence charge                       :      52.00000000

 Number of empty states                     :       5
 Total number of valence states             :      32

 Maximum Hamiltonian size                   :     531
 Maximum number of plane-waves              :     463
 Total number of local-orbitals             :      68

 Exchange-correlation type                  :      20
     Perdew-Burke-Ernzerhof, Phys. Rev. Lett. 77, 3865 (1996)
     Generalised gradient approximation (GGA)

 Smearing scheme                            :    Gaussian
 Smearing width                             :       0.00100000

 Using multisecant Broyden potential mixing

++++++++++++++++++++++++++++++++++++++++++++++++++++++++++++++++++++++++++++++++
+ Ending initialization                                                        +
++++++++++++++++++++++++++++++++++++++++++++++++++++++++++++++++++++++++++++++++

********************************************************************************
* Groundstate module started                                                   *
********************************************************************************
 Output level for this task is set to normal

++++++++++++++++++++++++++++++++++++++++++++++++++++++++++++++++++++++++++++++++
+ Self-consistent loop started                                                 +
++++++++++++++++++++++++++++++++++++++++++++++++++++++++++++++++++++++++++++++++
 Density and potential initialised from atomic data


++++++++++++++++++++++++++++++++++++++++++++++++++++++++++++++++++++++++++++++++
+ SCF iteration number :    1                                                  +
++++++++++++++++++++++++++++++++++++++++++++++++++++++++++++++++++++++++++++++++
 Total energy                               :     -3992.31160871
 _______________________________________________________________
 Fermi energy                               :         0.27802275
 Kinetic energy                             :      4079.46737791
 Coulomb energy                             :     -7906.13233770
 Exchange energy                            :      -165.64664892
 Correlation energy                         :         0.00000000

 DOS at Fermi energy (states/Ha/cell)       :         0.00000000

 Electron charges :
     core                                   :        24.00000000
     core leakage                           :         0.00004040
     valence                                :        52.00000000
     interstitial                           :        11.07748010
     charge in muffin-tin spheres :
                  atom     1    Ga          :        26.73337367
                  atom     2    Ga          :        26.73337367
                  atom     3     N          :         5.72788628
                  atom     4     N          :         5.72788628
     total charge in muffin-tins            :        64.92251990
     total charge                           :        76.00000000

 Estimated fundamental gap                  :         0.12262756
        valence-band maximum at    1      0.0000  0.0000  0.0000
     conduction-band minimum at    1      0.0000  0.0000  0.0000

 Wall time (seconds)                        :        22.02

++++++++++++++++++++++++++++++++++++++++++++++++++++++++++++++++++++++++++++++++
+ SCF iteration number :    2                                                  +
++++++++++++++++++++++++++++++++++++++++++++++++++++++++++++++++++++++++++++++++
 Total energy                               :     -3996.91894953
 _______________________________________________________________
 Fermi energy                               :         0.32247565
 Kinetic energy                             :      4075.94329846
 Coulomb energy                             :     -7907.39829588
 Exchange energy                            :      -165.46395211
 Correlation energy                         :         0.00000000

 DOS at Fermi energy (states/Ha/cell)       :         0.00000000

 Electron charges :
     core                                   :        24.00000000
     core leakage                           :         0.00004186
     valence                                :        52.00000000
     interstitial                           :        11.71705927
     charge in muffin-tin spheres :
                  atom     1    Ga          :        26.81848679
                  atom     2    Ga          :        26.81848679
                  atom     3     N          :         5.32298357
                  atom     4     N          :         5.32298357
     total charge in muffin-tins            :        64.28294073
     total charge                           :        76.00000000

 Estimated fundamental gap                  :         0.08339261
        valence-band maximum at    1      0.0000  0.0000  0.0000
     conduction-band minimum at    1      0.0000  0.0000  0.0000

 Wall time (seconds)                        :        36.63

 RMS change in effective potential (target) :  0.648069      ( 0.100000E-05)
 Absolute change in total energy   (target) :   4.60734      ( 0.100000E-05)
 Charge distance                   (target) :  0.231472E-01  ( 0.100000E-04)
 Abs. change in max-nonIBS-force   (target) :  0.130710      ( 0.500000E-04)

++++++++++++++++++++++++++++++++++++++++++++++++++++++++++++++++++++++++++++++++
+ SCF iteration number :    3                                                  +
++++++++++++++++++++++++++++++++++++++++++++++++++++++++++++++++++++++++++++++++
 Total energy                               :     -3997.11569391
 _______________________________________________________________
 Fermi energy                               :         0.33703198
 Kinetic energy                             :      4074.93735273
 Coulomb energy                             :     -7906.71403530
 Exchange energy                            :      -165.33901134
 Correlation energy                         :         0.00000000

 DOS at Fermi energy (states/Ha/cell)       :         0.00000000

 Electron charges :
     core                                   :        24.00000000
     core leakage                           :         0.00004217
     valence                                :        52.00000000
     interstitial                           :        11.96092607
     charge in muffin-tin spheres :
                  atom     1    Ga          :        26.83748433
                  atom     2    Ga          :        26.83748433
                  atom     3     N          :         5.18205263
                  atom     4     N          :         5.18205263
     total charge in muffin-tins            :        64.03907393
     total charge                           :        76.00000000

 Estimated fundamental gap                  :         0.07032004
        valence-band maximum at    1      0.0000  0.0000  0.0000
     conduction-band minimum at    1      0.0000  0.0000  0.0000

 Wall time (seconds)                        :        52.09

 RMS change in effective potential (target) :  0.517038      ( 0.100000E-05)
 Absolute change in total energy   (target) :  0.196744      ( 0.100000E-05)
 Charge distance                   (target) :  0.834830E-02  ( 0.100000E-04)
 Abs. change in max-nonIBS-force   (target) :  0.633711E-01  ( 0.500000E-04)

++++++++++++++++++++++++++++++++++++++++++++++++++++++++++++++++++++++++++++++++
+ SCF iteration number :    4                                                  +
++++++++++++++++++++++++++++++++++++++++++++++++++++++++++++++++++++++++++++++++
 Total energy                               :     -4008.83768718
 _______________________________________________________________
 Fermi energy                               :         0.32604747
 Kinetic energy                             :      4069.68576656
 Coulomb energy                             :     -7912.78065532
 Exchange energy                            :      -165.74279841
 Correlation energy                         :         0.00000000

 DOS at Fermi energy (states/Ha/cell)       :         0.00000000

 Electron charges :
     core                                   :        24.00000000
     core leakage                           :         0.00004132
     valence                                :        52.00000000
     interstitial                           :        11.82144545
     charge in muffin-tin spheres :
                  atom     1    Ga          :        26.91234412
                  atom     2    Ga          :        26.91234412
                  atom     3     N          :         5.17693316
                  atom     4     N          :         5.17693316
     total charge in muffin-tins            :        64.17855455
     total charge                           :        76.00000000

 Estimated fundamental gap                  :         0.07270381
        valence-band maximum at    1      0.0000  0.0000  0.0000
     conduction-band minimum at    1      0.0000  0.0000  0.0000

 Wall time (seconds)                        :        68.55

 RMS change in effective potential (target) :  0.835699E-01  ( 0.100000E-05)
 Absolute change in total energy   (target) :   11.7220      ( 0.100000E-05)
 Charge distance                   (target) :  0.571967E-02  ( 0.100000E-04)
 Abs. change in max-nonIBS-force   (target) :  0.339182E-01  ( 0.500000E-04)

++++++++++++++++++++++++++++++++++++++++++++++++++++++++++++++++++++++++++++++++
+ SCF iteration number :    5                                                  +
++++++++++++++++++++++++++++++++++++++++++++++++++++++++++++++++++++++++++++++++
 Total energy                               :     -3980.71218980
 _______________________________________________________________
 Fermi energy                               :         0.34135798
 Kinetic energy                             :      4079.86730350
 Coulomb energy                             :     -7895.96740050
 Exchange energy                            :      -164.61209280
 Correlation energy                         :         0.00000000

 DOS at Fermi energy (states/Ha/cell)       :         0.00000000

 Electron charges :
     core                                   :        24.00000000
     core leakage                           :         0.00004163
     valence                                :        52.00000000
     interstitial                           :        12.29439781
     charge in muffin-tin spheres :
                  atom     1    Ga          :        26.72376490
                  atom     2    Ga          :        26.72376490
                  atom     3     N          :         5.12903619
                  atom     4     N          :         5.12903619
     total charge in muffin-tins            :        63.70560219
     total charge                           :        76.00000000

 Estimated fundamental gap                  :         0.06038966
        valence-band maximum at    1      0.0000  0.0000  0.0000
     conduction-band minimum at    1      0.0000  0.0000  0.0000

 Wall time (seconds)                        :        85.92

 RMS change in effective potential (target) :  0.111514      ( 0.100000E-05)
 Absolute change in total energy   (target) :   28.1255      ( 0.100000E-05)
 Charge distance                   (target) :  0.177377E-01  ( 0.100000E-04)
 Abs. change in max-nonIBS-force   (target) :  0.105750E-01  ( 0.500000E-04)

++++++++++++++++++++++++++++++++++++++++++++++++++++++++++++++++++++++++++++++++
+ SCF iteration number :    6                                                  +
++++++++++++++++++++++++++++++++++++++++++++++++++++++++++++++++++++++++++++++++
 Total energy                               :     -3997.53497282
 _______________________________________________________________
 Fermi energy                               :         0.33670484
 Kinetic energy                             :      4073.54638139
 Coulomb energy                             :     -7905.82487531
 Exchange energy                            :      -165.25647890
 Correlation energy                         :         0.00000000

 DOS at Fermi energy (states/Ha/cell)       :         0.00000000

 Electron charges :
     core                                   :        24.00000000
     core leakage                           :         0.00004152
     valence                                :        52.00000000
     interstitial                           :        12.07327211
     charge in muffin-tin spheres :
                  atom     1    Ga          :        26.84533587
                  atom     2    Ga          :        26.84533587
                  atom     3     N          :         5.11802807
                  atom     4     N          :         5.11802807
     total charge in muffin-tins            :        63.92672789
     total charge                           :        76.00000000

 Estimated fundamental gap                  :         0.06394118
        valence-band maximum at    1      0.0000  0.0000  0.0000
     conduction-band minimum at    1      0.0000  0.0000  0.0000

 Wall time (seconds)                        :       103.18

 RMS change in effective potential (target) :  0.602628E-02  ( 0.100000E-05)
 Absolute change in total energy   (target) :   16.8228      ( 0.100000E-05)
 Charge distance                   (target) :  0.917749E-02  ( 0.100000E-04)
 Abs. change in max-nonIBS-force   (target) :  0.171984E-02  ( 0.500000E-04)

++++++++++++++++++++++++++++++++++++++++++++++++++++++++++++++++++++++++++++++++
+ SCF iteration number :    7                                                  +
++++++++++++++++++++++++++++++++++++++++++++++++++++++++++++++++++++++++++++++++
 Total energy                               :     -3997.30910861
 _______________________________________________________________
 Fermi energy                               :         0.33475986
 Kinetic energy                             :      4073.74348240
 Coulomb energy                             :     -7905.79090747
 Exchange energy                            :      -165.26168354
 Correlation energy                         :         0.00000000

 DOS at Fermi energy (states/Ha/cell)       :         0.00000000

 Electron charges :
     core                                   :        24.00000000
     core leakage                           :         0.00004147
     valence                                :        52.00000000
     interstitial                           :        12.04865989
     charge in muffin-tin spheres :
                  atom     1    Ga          :        26.84113724
                  atom     2    Ga          :        26.84113724
                  atom     3     N          :         5.13453281
                  atom     4     N          :         5.13453281
     total charge in muffin-tins            :        63.95134011
     total charge                           :        76.00000000

 Estimated fundamental gap                  :         0.06535884
        valence-band maximum at    1      0.0000  0.0000  0.0000
     conduction-band minimum at    1      0.0000  0.0000  0.0000

 Wall time (seconds)                        :       119.41

 RMS change in effective potential (target) :  0.312656E-02  ( 0.100000E-05)
 Absolute change in total energy   (target) :  0.225864      ( 0.100000E-05)
 Charge distance                   (target) :  0.990763E-03  ( 0.100000E-04)
 Abs. change in max-nonIBS-force   (target) :  0.450381E-02  ( 0.500000E-04)

++++++++++++++++++++++++++++++++++++++++++++++++++++++++++++++++++++++++++++++++
+ SCF iteration number :    8                                                  +
++++++++++++++++++++++++++++++++++++++++++++++++++++++++++++++++++++++++++++++++
 Total energy                               :     -3997.28460216
 _______________________________________________________________
 Fermi energy                               :         0.33504271
 Kinetic energy                             :      4073.74668482
 Coulomb energy                             :     -7905.77235013
 Exchange energy                            :      -165.25893685
 Correlation energy                         :         0.00000000

 DOS at Fermi energy (states/Ha/cell)       :         0.00000000

 Electron charges :
     core                                   :        24.00000000
     core leakage                           :         0.00004149
     valence                                :        52.00000000
     interstitial                           :        12.05312927
     charge in muffin-tin spheres :
                  atom     1    Ga          :        26.84121813
                  atom     2    Ga          :        26.84121813
                  atom     3     N          :         5.13221723
                  atom     4     N          :         5.13221723
     total charge in muffin-tins            :        63.94687073
     total charge                           :        76.00000000

 Estimated fundamental gap                  :         0.06515227
        valence-band maximum at    1      0.0000  0.0000  0.0000
     conduction-band minimum at    1      0.0000  0.0000  0.0000

 Wall time (seconds)                        :       137.58

 RMS change in effective potential (target) :  0.363942E-03  ( 0.100000E-05)
 Absolute change in total energy   (target) :  0.245064E-01  ( 0.100000E-05)
 Charge distance                   (target) :  0.141128E-03  ( 0.100000E-04)
 Abs. change in max-nonIBS-force   (target) :  0.866202E-03  ( 0.500000E-04)

++++++++++++++++++++++++++++++++++++++++++++++++++++++++++++++++++++++++++++++++
+ SCF iteration number :    9                                                  +
++++++++++++++++++++++++++++++++++++++++++++++++++++++++++++++++++++++++++++++++
 Total energy                               :     -3997.27263133
 _______________________________________________________________
 Fermi energy                               :         0.33509794
 Kinetic energy                             :      4073.75138646
 Coulomb energy                             :     -7905.76571274
 Exchange energy                            :      -165.25830505
 Correlation energy                         :         0.00000000

 DOS at Fermi energy (states/Ha/cell)       :         0.00000000

 Electron charges :
     core                                   :        24.00000000
     core leakage                           :         0.00004149
     valence                                :        52.00000000
     interstitial                           :        12.05383684
     charge in muffin-tin spheres :
                  atom     1    Ga          :        26.84117423
                  atom     2    Ga          :        26.84117423
                  atom     3     N          :         5.13190735
                  atom     4     N          :         5.13190735
     total charge in muffin-tins            :        63.94616316
     total charge                           :        76.00000000

 Estimated fundamental gap                  :         0.06514300
        valence-band maximum at    1      0.0000  0.0000  0.0000
     conduction-band minimum at    1      0.0000  0.0000  0.0000

 Wall time (seconds)                        :       154.29

 RMS change in effective potential (target) :  0.540461E-04  ( 0.100000E-05)
 Absolute change in total energy   (target) :  0.119708E-01  ( 0.100000E-05)
 Charge distance                   (target) :  0.216037E-04  ( 0.100000E-04)
 Abs. change in max-nonIBS-force   (target) :  0.336270E-03  ( 0.500000E-04)

++++++++++++++++++++++++++++++++++++++++++++++++++++++++++++++++++++++++++++++++
+ SCF iteration number :   10                                                  +
++++++++++++++++++++++++++++++++++++++++++++++++++++++++++++++++++++++++++++++++
 Total energy                               :     -3997.27299488
 _______________________________________________________________
 Fermi energy                               :         0.33511490
 Kinetic energy                             :      4073.75034775
 Coulomb energy                             :     -7905.76513903
 Exchange energy                            :      -165.25820360
 Correlation energy                         :         0.00000000

 DOS at Fermi energy (states/Ha/cell)       :         0.00000000

 Electron charges :
     core                                   :        24.00000000
     core leakage                           :         0.00004149
     valence                                :        52.00000000
     interstitial                           :        12.05405810
     charge in muffin-tin spheres :
                  atom     1    Ga          :        26.84119753
                  atom     2    Ga          :        26.84119753
                  atom     3     N          :         5.13177342
                  atom     4     N          :         5.13177342
     total charge in muffin-tins            :        63.94594190
     total charge                           :        76.00000000

 Estimated fundamental gap                  :         0.06512845
        valence-band maximum at    1      0.0000  0.0000  0.0000
     conduction-band minimum at    1      0.0000  0.0000  0.0000

 Wall time (seconds)                        :       170.60

 RMS change in effective potential (target) :  0.114497E-04  ( 0.100000E-05)
 Absolute change in total energy   (target) :  0.363547E-03  ( 0.100000E-05)
 Charge distance                   (target) :  0.858385E-05  ( 0.100000E-04)
 Abs. change in max-nonIBS-force   (target) :  0.254596E-03  ( 0.500000E-04)

++++++++++++++++++++++++++++++++++++++++++++++++++++++++++++++++++++++++++++++++
+ SCF iteration number :   11                                                  +
++++++++++++++++++++++++++++++++++++++++++++++++++++++++++++++++++++++++++++++++
 Total energy                               :     -3997.27365926
 _______________________________________________________________
 Fermi energy                               :         0.33511775
 Kinetic energy                             :      4073.74978239
 Coulomb energy                             :     -7905.76523807
 Exchange energy                            :      -165.25820359
 Correlation energy                         :         0.00000000

 DOS at Fermi energy (states/Ha/cell)       :         0.00000000

 Electron charges :
     core                                   :        24.00000000
     core leakage                           :         0.00004149
     valence                                :        52.00000000
     interstitial                           :        12.05409272
     charge in muffin-tin spheres :
                  atom     1    Ga          :        26.84120780
                  atom     2    Ga          :        26.84120780
                  atom     3     N          :         5.13174584
                  atom     4     N          :         5.13174584
     total charge in muffin-tins            :        63.94590728
     total charge                           :        76.00000000

 Estimated fundamental gap                  :         0.06512640
        valence-band maximum at    1      0.0000  0.0000  0.0000
     conduction-band minimum at    1      0.0000  0.0000  0.0000

 Wall time (seconds)                        :       186.77

 RMS change in effective potential (target) :  0.205063E-05  ( 0.100000E-05)
 Absolute change in total energy   (target) :  0.664385E-03  ( 0.100000E-05)
 Charge distance                   (target) :  0.177913E-05  ( 0.100000E-04)
 Abs. change in max-nonIBS-force   (target) :  0.276338E-04  ( 0.500000E-04)

++++++++++++++++++++++++++++++++++++++++++++++++++++++++++++++++++++++++++++++++
+ SCF iteration number :   12                                                  +
++++++++++++++++++++++++++++++++++++++++++++++++++++++++++++++++++++++++++++++++
 Total energy                               :     -3997.27368308
 _______________________________________________________________
 Fermi energy                               :         0.33511742
 Kinetic energy                             :      4073.74975489
 Coulomb energy                             :     -7905.76523234
 Exchange energy                            :      -165.25820563
 Correlation energy                         :         0.00000000

 DOS at Fermi energy (states/Ha/cell)       :         0.00000000

 Electron charges :
     core                                   :        24.00000000
     core leakage                           :         0.00004149
     valence                                :        52.00000000
     interstitial                           :        12.05408851
     charge in muffin-tin spheres :
                  atom     1    Ga          :        26.84120800
                  atom     2    Ga          :        26.84120800
                  atom     3     N          :         5.13174774
                  atom     4     N          :         5.13174774
     total charge in muffin-tins            :        63.94591149
     total charge                           :        76.00000000

 Estimated fundamental gap                  :         0.06512660
        valence-band maximum at    1      0.0000  0.0000  0.0000
     conduction-band minimum at    1      0.0000  0.0000  0.0000

 Wall time (seconds)                        :       203.27

 RMS change in effective potential (target) :  0.368314E-06  ( 0.100000E-05)
 Absolute change in total energy   (target) :  0.238158E-04  ( 0.100000E-05)
 Charge distance                   (target) :  0.215977E-06  ( 0.100000E-04)
 Abs. change in max-nonIBS-force   (target) :  0.144737E-04  ( 0.500000E-04)

++++++++++++++++++++++++++++++++++++++++++++++++++++++++++++++++++++++++++++++++
+ SCF iteration number :   13                                                  +
++++++++++++++++++++++++++++++++++++++++++++++++++++++++++++++++++++++++++++++++
 Total energy                               :     -3997.27362603
 _______________________________________________________________
 Fermi energy                               :         0.33511749
 Kinetic energy                             :      4073.74978252
 Coulomb energy                             :     -7905.76520517
 Exchange energy                            :      -165.25820338
 Correlation energy                         :         0.00000000

 DOS at Fermi energy (states/Ha/cell)       :         0.00000000

 Electron charges :
     core                                   :        24.00000000
     core leakage                           :         0.00004149
     valence                                :        52.00000000
     interstitial                           :        12.05408967
     charge in muffin-tin spheres :
                  atom     1    Ga          :        26.84120756
                  atom     2    Ga          :        26.84120756
                  atom     3     N          :         5.13174761
                  atom     4     N          :         5.13174761
     total charge in muffin-tins            :        63.94591033
     total charge                           :        76.00000000

 Estimated fundamental gap                  :         0.06512652
        valence-band maximum at    1      0.0000  0.0000  0.0000
     conduction-band minimum at    1      0.0000  0.0000  0.0000

 Wall time (seconds)                        :       221.79

 RMS change in effective potential (target) :  0.364757E-07  ( 0.100000E-05)
 Absolute change in total energy   (target) :  0.570485E-04  ( 0.100000E-05)
 Charge distance                   (target) :  0.803567E-07  ( 0.100000E-04)
 Abs. change in max-nonIBS-force   (target) :  0.940240E-05  ( 0.500000E-04)

++++++++++++++++++++++++++++++++++++++++++++++++++++++++++++++++++++++++++++++++
+ SCF iteration number :   14                                                  +
++++++++++++++++++++++++++++++++++++++++++++++++++++++++++++++++++++++++++++++++
 Total energy                               :     -3997.27362532
 _______________________________________________________________
 Fermi energy                               :         0.33511750
 Kinetic energy                             :      4073.74978316
 Coulomb energy                             :     -7905.76520519
 Exchange energy                            :      -165.25820329
 Correlation energy                         :         0.00000000

 DOS at Fermi energy (states/Ha/cell)       :         0.00000000

 Electron charges :
     core                                   :        24.00000000
     core leakage                           :         0.00004149
     valence                                :        52.00000000
     interstitial                           :        12.05408984
     charge in muffin-tin spheres :
                  atom     1    Ga          :        26.84120755
                  atom     2    Ga          :        26.84120755
                  atom     3     N          :         5.13174753
                  atom     4     N          :         5.13174753
     total charge in muffin-tins            :        63.94591016
     total charge                           :        76.00000000

 Estimated fundamental gap                  :         0.06512651
        valence-band maximum at    1      0.0000  0.0000  0.0000
     conduction-band minimum at    1      0.0000  0.0000  0.0000

 Wall time (seconds)                        :       240.42

 RMS change in effective potential (target) :  0.171362E-07  ( 0.100000E-05)
 Absolute change in total energy   (target) :  0.711524E-06  ( 0.100000E-05)
 Charge distance                   (target) :  0.839489E-08  ( 0.100000E-04)
 Abs. change in max-nonIBS-force   (target) :  0.760540E-06  ( 0.500000E-04)

++++++++++++++++++++++++++++++++++++++++++++++++++++++++++++++++++++++++++++++++
+ SCF iteration number :   15                                                  +
++++++++++++++++++++++++++++++++++++++++++++++++++++++++++++++++++++++++++++++++
 Total energy                               :     -3997.27362665
 _______________________________________________________________
 Fermi energy                               :         0.33511750
 Kinetic energy                             :      4073.74978256
 Coulomb energy                             :     -7905.76520587
 Exchange energy                            :      -165.25820335
 Correlation energy                         :         0.00000000

 DOS at Fermi energy (states/Ha/cell)       :         0.00000000

 Electron charges :
     core                                   :        24.00000000
     core leakage                           :         0.00004149
     valence                                :        52.00000000
     interstitial                           :        12.05408981
     charge in muffin-tin spheres :
                  atom     1    Ga          :        26.84120756
                  atom     2    Ga          :        26.84120756
                  atom     3     N          :         5.13174753
                  atom     4     N          :         5.13174753
     total charge in muffin-tins            :        63.94591019
     total charge                           :        76.00000000

 Estimated fundamental gap                  :         0.06512651
        valence-band maximum at    1      0.0000  0.0000  0.0000
     conduction-band minimum at    1      0.0000  0.0000  0.0000

 Wall time (seconds)                        :       257.57

 RMS change in effective potential (target) :  0.695200E-08  ( 0.100000E-05)
 Absolute change in total energy   (target) :  0.133818E-05  ( 0.100000E-05)
 Charge distance                   (target) :  0.104351E-08  ( 0.100000E-04)
 Abs. change in max-nonIBS-force   (target) :  0.270145E-07  ( 0.500000E-04)

++++++++++++++++++++++++++++++++++++++++++++++++++++++++++++++++++++++++++++++++
+ SCF iteration number :   16                                                  +
++++++++++++++++++++++++++++++++++++++++++++++++++++++++++++++++++++++++++++++++
 Total energy                               :     -3997.27362702
 _______________________________________________________________
 Fermi energy                               :         0.33511750
 Kinetic energy                             :      4073.74978241
 Coulomb energy                             :     -7905.76520607
 Exchange energy                            :      -165.25820336
 Correlation energy                         :         0.00000000

 DOS at Fermi energy (states/Ha/cell)       :         0.00000000

 Electron charges :
     core                                   :        24.00000000
     core leakage                           :         0.00004149
     valence                                :        52.00000000
     interstitial                           :        12.05408980
     charge in muffin-tin spheres :
                  atom     1    Ga          :        26.84120757
                  atom     2    Ga          :        26.84120757
                  atom     3     N          :         5.13174754
                  atom     4     N          :         5.13174754
     total charge in muffin-tins            :        63.94591020
     total charge                           :        76.00000000

 Estimated fundamental gap                  :         0.06512651
        valence-band maximum at    1      0.0000  0.0000  0.0000
     conduction-band minimum at    1      0.0000  0.0000  0.0000

 Wall time (seconds)                        :       277.58

 RMS change in effective potential (target) :  0.442552E-08  ( 0.100000E-05)
 Absolute change in total energy   (target) :  0.366671E-06  ( 0.100000E-05)
 Charge distance                   (target) :  0.371711E-09  ( 0.100000E-04)
 Abs. change in max-nonIBS-force   (target) :  0.121325E-07  ( 0.500000E-04)

++++++++++++++++++++++++++++++++++++++++++++++++++++++++++++++++++++++++++++++++
+ SCF iteration number :   17                                                  +
++++++++++++++++++++++++++++++++++++++++++++++++++++++++++++++++++++++++++++++++
 Total energy                               :     -3997.27362728
 _______________________________________________________________
 Fermi energy                               :         0.33511750
 Kinetic energy                             :      4073.74978228
 Coulomb energy                             :     -7905.76520618
 Exchange energy                            :      -165.25820337
 Correlation energy                         :         0.00000000

 DOS at Fermi energy (states/Ha/cell)       :         0.00000000

 Electron charges :
     core                                   :        24.00000000
     core leakage                           :         0.00004149
     valence                                :        52.00000000
     interstitial                           :        12.05408979
     charge in muffin-tin spheres :
                  atom     1    Ga          :        26.84120757
                  atom     2    Ga          :        26.84120757
                  atom     3     N          :         5.13174754
                  atom     4     N          :         5.13174754
     total charge in muffin-tins            :        63.94591021
     total charge                           :        76.00000000

 Estimated fundamental gap                  :         0.06512651
        valence-band maximum at    1      0.0000  0.0000  0.0000
     conduction-band minimum at    1      0.0000  0.0000  0.0000

 Wall time (seconds)                        :       297.46

 RMS change in effective potential (target) :  0.325224E-08  ( 0.100000E-05)
 Absolute change in total energy   (target) :  0.253994E-06  ( 0.100000E-05)
 Charge distance                   (target) :  0.324689E-09  ( 0.100000E-04)
 Abs. change in max-nonIBS-force   (target) :  0.245243E-07  ( 0.500000E-04)
                                                                                
++++++++++++++++++++++++++++++++++++++++++++++++++++++++++++++++++++++++++++++++
| Convergency criteria checked for the last 2 iterations                       +
| Convergence targets achieved. Performing final SCF iteration                 +
++++++++++++++++++++++++++++++++++++++++++++++++++++++++++++++++++++++++++++++++
 Total energy                               :     -3997.27362729
 _______________________________________________________________
 Fermi energy                               :         0.33511750
 Kinetic energy                             :      4073.74978227
 Coulomb energy                             :     -7905.76520619
 Exchange energy                            :      -165.25820337
 Correlation energy                         :         0.00000000

 DOS at Fermi energy (states/Ha/cell)       :         0.00000000

 Electron charges :
     core                                   :        24.00000000
     core leakage                           :         0.00004149
     valence                                :        52.00000000
     interstitial                           :        12.05408979
     charge in muffin-tin spheres :
                  atom     1    Ga          :        26.84120757
                  atom     2    Ga          :        26.84120757
                  atom     3     N          :         5.13174754
                  atom     4     N          :         5.13174754
     total charge in muffin-tins            :        63.94591021
     total charge                           :        76.00000000

 Estimated fundamental gap                  :         0.06512651
        valence-band maximum at    1      0.0000  0.0000  0.0000
     conduction-band minimum at    1      0.0000  0.0000  0.0000

++++++++++++++++++++++++++++++++++++++++++++++++++++++++++++++++++++++++++++++++
+ Self-consistent loop stopped                                                 +
++++++++++++++++++++++++++++++++++++++++++++++++++++++++++++++++++++++++++++++++
 STATE.OUT is written

--------------------------------------------------------------------------------
- Writing atomic positions and forces                                          -
--------------------------------------------------------------------------------

 Atomic positions (lattice) :
 atom     1  Ga  :     0.00000000    0.00000000    0.00000000
 atom     2  Ga  :     0.33333333    0.33333333    0.50000000
 atom     3   N  :     0.33333333    0.33333333    0.87781160
 atom     4   N  :     0.00000000    0.00000000    0.37781160

 Total atomic forces including IBS (cartesian) :
 atom     1  Ga  :     0.00000000   -0.00000000    0.04196303
 atom     2  Ga  :     0.00000000    0.00000000    0.04196303
 atom     3   N  :    -0.00000000   -0.00000000   -0.04196303
 atom     4   N  :    -0.00000000   -0.00000000   -0.04196303

 Atomic force components including IBS (cartesian) :
 atom     1  Ga  :    -0.00000000   -0.00000000    0.14479090   HF force
                 :     0.00000000    0.00000000   -0.10282787   core correction
                 :     0.00000000    0.00000000    0.00000000   IBS correction
 atom     2  Ga  :    -0.00000000    0.00000000    0.14479090   HF force
                 :     0.00000000   -0.00000000   -0.10282787   core correction
                 :     0.00000000    0.00000000    0.00000000   IBS correction
 atom     3   N  :     0.00000000   -0.00000000   -0.14479090   HF force
                 :    -0.00000000    0.00000000    0.10282787   core correction
                 :     0.00000000    0.00000000    0.00000000   IBS correction
 atom     4   N  :     0.00000000    0.00000000   -0.14479090   HF force
                 :    -0.00000000    0.00000000    0.10282787   core correction
                 :     0.00000000    0.00000000    0.00000000   IBS correction

********************************************************************************
* Groundstate module stopped                                                   *
********************************************************************************

 Total time spent (seconds)                 :       311.43
================================================================================
| EXCITING FLUORINE stopped                                                    =
================================================================================
