================================================================================
| EXCITING OXYGEN started                                                      =
| version hash id: 4224f1828cabf631f54613830ca8b917adff4b84                    =
|                                                                              =
| compiler: ifort (IFORT) 19.0.0.117 20180804                                  =
|                                                                              =
|                                                                              =
| Date (DD-MM-YYYY) : 27-01-2023                                               =
| Time (hh:mm:ss)   : 15:07:16                                                 =
|                                                                              =
| All units are atomic (Hartree, Bohr, etc.)                                   =
================================================================================
 
********************************************************************************
* Ground-state run starting from atomic densities                              *
********************************************************************************
 
++++++++++++++++++++++++++++++++++++++++++++++++++++++++++++++++++++++++++++++++
+ Starting initialization                                                      +
++++++++++++++++++++++++++++++++++++++++++++++++++++++++++++++++++++++++++++++++
 
 Lattice vectors (cartesian) :
      5.1300000000      5.1300000000      0.0000000000
      5.1300000000      0.0000000000      5.1300000000
      0.0000000000      5.1300000000      5.1300000000
 
 Reciprocal lattice vectors (cartesian) :
      0.6123962288      0.6123962288     -0.6123962288
      0.6123962288     -0.6123962288      0.6123962288
     -0.6123962288      0.6123962288      0.6123962288
 
 Unit cell volume                           :     270.0113940000
 Brillouin zone volume                      :       0.9186657265
 
 Species :    1 (Si)
     parameters loaded from                 :    Si.xml
     name                                   :    silicon
     nuclear charge                         :     -14.00000000
     electronic charge                      :      14.00000000
     atomic mass                            :   51196.73454000
     muffin-tin radius                      :       2.10000000
     # of radial points in muffin-tin       :     300
 
     atomic positions (lattice) :
       1 :   0.00000000  0.00000000  0.00000000
       2 :   0.25000000  0.25000000  0.25000000
 
 Total number of atoms per unit cell        :       2
 
 Spin treatment                             :    spin-unpolarised
 
 Number of Bravais lattice symmetries       :      48
 Number of crystal symmetries               :      48
 
 k-point grid                               :       2    2    2
 Total number of k-points                   :       3
 k-point set is reduced with crystal symmetries
 
 R^MT_min * |G+k|_max (rgkmax)              :       6.00000000
 Species with R^MT_min                      :       1 (Si)
 Maximum |G+k| for APW functions            :       2.85714286
 Maximum |G| for potential and density      :      12.00000000
 Polynomial order for pseudochg. density    :       9
 
 G-vector grid sizes                        :      30    30    30
 Total number of G-vectors                  :    7799
 
 Maximum angular momentum used for
     APW functions                          :       8
     computing H and O matrix elements      :       8
     potential and density                  :       8
     inner part of muffin-tin               :       2
 
 Total nuclear charge                       :     -28.00000000
 Total electronic charge                    :      28.00000000
 Total core charge                          :      20.00000000
 Total valence charge                       :       8.00000000
 
 Effective Wigner radius, r_s               :       1.32041916
 
 Number of empty states                     :       5
 Total number of valence states             :      10
 
 Maximum Hamiltonian size                   :     121
 Maximum number of plane-waves              :     113
 Total number of local-orbitals             :       8
 
 Exchange-correlation type                  :     408
     HSE06, A. V. Krukau et al., J. Chem. Phys. 125, 224106 (2006)
     Hybrid functional 
     Exchange type                          :       HF
     Mixing coefficient for exact exchange  :       0.25000000
     Screening parameter (omega)            :       0.11000000
 
 Smearing scheme                            :    Extended linear tetrahedron method
 
 Using multisecant Broyden potential mixing
 
++++++++++++++++++++++++++++++++++++++++++++++++++++++++++++++++++++++++++++++++
+ Ending initialization                                                        +
++++++++++++++++++++++++++++++++++++++++++++++++++++++++++++++++++++++++++++++++
 
********************************************************************************
* Hybrids module started                                                        
********************************************************************************
 
 Performing PBE self-consistent run
 Storing STATE_PBE.OUT
 
++++++++++++++++++++++++++++++++++++++++++++++++++++++++++++++++++++++++++++++++
+ Hybrids iteration number :    1                                               
++++++++++++++++++++++++++++++++++++++++++++++++++++++++++++++++++++++++++++++++
 
 Info(calc_vxnl):
    mdim, nblk, mblksiz:       20       1 1000000
    ---> rank, ikp, iq =        0       1       1
    locmatsiz, ngk, matsiz, mbsiz:     318     113     431     430
    iblk, mstart, mend, size(minm) (Mb):       1       1      20          1.31
    ---> rank, ikp, iq =        0       1       2
    locmatsiz, ngk, matsiz, mbsiz:     318     108     426     426
    iblk, mstart, mend, size(minm) (Mb):       1       1      20          1.30
    ---> rank, ikp, iq =        0       1       3
    locmatsiz, ngk, matsiz, mbsiz:     318     108     426     426
    iblk, mstart, mend, size(minm) (Mb):       1       1      20          1.30
    ---> rank, ikp, iq =        0       1       4
    locmatsiz, ngk, matsiz, mbsiz:     318     108     426     426
    iblk, mstart, mend, size(minm) (Mb):       1       1      20          1.30
    ---> rank, ikp, iq =        0       1       5
    locmatsiz, ngk, matsiz, mbsiz:     318     108     426     426
    iblk, mstart, mend, size(minm) (Mb):       1       1      20          1.30
    ---> rank, ikp, iq =        0       1       6
    locmatsiz, ngk, matsiz, mbsiz:     318     108     426     426
    iblk, mstart, mend, size(minm) (Mb):       1       1      20          1.30
    ---> rank, ikp, iq =        0       1       7
    locmatsiz, ngk, matsiz, mbsiz:     318     108     426     426
    iblk, mstart, mend, size(minm) (Mb):       1       1      20          1.30
    ---> rank, ikp, iq =        0       1       8
    locmatsiz, ngk, matsiz, mbsiz:     318     108     426     426
    iblk, mstart, mend, size(minm) (Mb):       1       1      20          1.30
    ---> rank, ikp, iq =        0       2       1
    locmatsiz, ngk, matsiz, mbsiz:     318     113     431     430
    iblk, mstart, mend, size(minm) (Mb):       1       1      20          1.31
    ---> rank, ikp, iq =        0       2       2
    locmatsiz, ngk, matsiz, mbsiz:     318     108     426     426
    iblk, mstart, mend, size(minm) (Mb):       1       1      20          1.30
    ---> rank, ikp, iq =        0       2       3
    locmatsiz, ngk, matsiz, mbsiz:     318     108     426     426
    iblk, mstart, mend, size(minm) (Mb):       1       1      20          1.30
    ---> rank, ikp, iq =        0       2       4
    locmatsiz, ngk, matsiz, mbsiz:     318     108     426     426
    iblk, mstart, mend, size(minm) (Mb):       1       1      20          1.30
    ---> rank, ikp, iq =        0       2       5
    locmatsiz, ngk, matsiz, mbsiz:     318     108     426     426
    iblk, mstart, mend, size(minm) (Mb):       1       1      20          1.30
    ---> rank, ikp, iq =        0       2       6
    locmatsiz, ngk, matsiz, mbsiz:     318     108     426     426
    iblk, mstart, mend, size(minm) (Mb):       1       1      20          1.30
    ---> rank, ikp, iq =        0       2       7
    locmatsiz, ngk, matsiz, mbsiz:     318     108     426     426
    iblk, mstart, mend, size(minm) (Mb):       1       1      20          1.30
    ---> rank, ikp, iq =        0       2       8
    locmatsiz, ngk, matsiz, mbsiz:     318     108     426     426
    iblk, mstart, mend, size(minm) (Mb):       1       1      20          1.30
    ---> rank, ikp, iq =        0       3       1
    locmatsiz, ngk, matsiz, mbsiz:     318     113     431     430
    iblk, mstart, mend, size(minm) (Mb):       1       1      20          1.31
    ---> rank, ikp, iq =        0       3       2
    locmatsiz, ngk, matsiz, mbsiz:     318     108     426     426
    iblk, mstart, mend, size(minm) (Mb):       1       1      20          1.30
    ---> rank, ikp, iq =        0       3       3
    locmatsiz, ngk, matsiz, mbsiz:     318     108     426     426
    iblk, mstart, mend, size(minm) (Mb):       1       1      20          1.30
    ---> rank, ikp, iq =        0       3       4
    locmatsiz, ngk, matsiz, mbsiz:     318     108     426     426
    iblk, mstart, mend, size(minm) (Mb):       1       1      20          1.30
    ---> rank, ikp, iq =        0       3       5
    locmatsiz, ngk, matsiz, mbsiz:     318     108     426     426
    iblk, mstart, mend, size(minm) (Mb):       1       1      20          1.30
    ---> rank, ikp, iq =        0       3       6
    locmatsiz, ngk, matsiz, mbsiz:     318     108     426     426
    iblk, mstart, mend, size(minm) (Mb):       1       1      20          1.30
    ---> rank, ikp, iq =        0       3       7
    locmatsiz, ngk, matsiz, mbsiz:     318     108     426     426
    iblk, mstart, mend, size(minm) (Mb):       1       1      20          1.30
    ---> rank, ikp, iq =        0       3       8
    locmatsiz, ngk, matsiz, mbsiz:     318     108     426     426
    iblk, mstart, mend, size(minm) (Mb):       1       1      20          1.30
 
 CPU time for vxnl (seconds)                :         7.98
 CPU time for vnlmat (seconds)              :         0.00
 CPU time for scf_cycle (seconds)           :         7.43
 
 Total energy                               :      -570.68877216
 _______________________________________________________________
 Fermi energy                               :         0.21150377
 Kinetic energy                             :       581.39338937
 Coulomb energy                             :     -1119.60761132
 Non-local exchange energy                  :        -1.87207651
 Exchange energy                            :       -31.38299379
 Correlation energy                         :        -1.09155643
 Sum of eigenvalues                         :      -316.65731629
 Effective potential energy                 :      -885.63790644
 Coulomb potential energy                   :      -844.39855183
 xc potential energy                        :       -41.23935461
 Hartree energy                             :       187.46152924
 Electron-nuclear energy                    :     -1219.32161031
 Nuclear-nuclear energy                     :       -87.74753025
 Madelung energy                            :      -697.40833540
 Core-electron kinetic energy               :       570.66518796
 
 DOS at Fermi energy (states/Ha/cell)       :         0.00000000
 
 Electron charges :
     core                                   :        20.00000000
     core leakage                           :         0.00453459
     valence                                :         8.00000000
     interstitial                           :         3.96085637
     charge in muffin-tin spheres :
                  atom     1    Si          :        12.01957181
                  atom     2    Si          :        12.01957181
     total charge in muffin-tins            :        24.03914363
     total charge                           :        28.00000000
 
 Estimated fundamental gap                  :         0.05567485
        valence-band maximum at    1      0.0000  0.0000  0.0000
     conduction-band minimum at    3      0.0000  0.5000  0.5000
 
 Charge distance                   (target) :  0.820023E-02 ( 0.100000E-04)
 
++++++++++++++++++++++++++++++++++++++++++++++++++++++++++++++++++++++++++++++++
+ Hybrids iteration number :    2                                               
++++++++++++++++++++++++++++++++++++++++++++++++++++++++++++++++++++++++++++++++
 
 Info(calc_vxnl):
    mdim, nblk, mblksiz:       20       1 1000000
    ---> rank, ikp, iq =        0       1       1
    locmatsiz, ngk, matsiz, mbsiz:     318     113     431     430
    iblk, mstart, mend, size(minm) (Mb):       1       1      20          1.31
    ---> rank, ikp, iq =        0       1       2
    locmatsiz, ngk, matsiz, mbsiz:     318     108     426     426
    iblk, mstart, mend, size(minm) (Mb):       1       1      20          1.30
    ---> rank, ikp, iq =        0       1       3
    locmatsiz, ngk, matsiz, mbsiz:     318     108     426     426
    iblk, mstart, mend, size(minm) (Mb):       1       1      20          1.30
    ---> rank, ikp, iq =        0       1       4
    locmatsiz, ngk, matsiz, mbsiz:     318     108     426     426
    iblk, mstart, mend, size(minm) (Mb):       1       1      20          1.30
    ---> rank, ikp, iq =        0       1       5
    locmatsiz, ngk, matsiz, mbsiz:     318     108     426     426
    iblk, mstart, mend, size(minm) (Mb):       1       1      20          1.30
    ---> rank, ikp, iq =        0       1       6
    locmatsiz, ngk, matsiz, mbsiz:     318     108     426     426
    iblk, mstart, mend, size(minm) (Mb):       1       1      20          1.30
    ---> rank, ikp, iq =        0       1       7
    locmatsiz, ngk, matsiz, mbsiz:     318     108     426     426
    iblk, mstart, mend, size(minm) (Mb):       1       1      20          1.30
    ---> rank, ikp, iq =        0       1       8
    locmatsiz, ngk, matsiz, mbsiz:     318     108     426     426
    iblk, mstart, mend, size(minm) (Mb):       1       1      20          1.30
    ---> rank, ikp, iq =        0       2       1
    locmatsiz, ngk, matsiz, mbsiz:     318     113     431     430
    iblk, mstart, mend, size(minm) (Mb):       1       1      20          1.31
    ---> rank, ikp, iq =        0       2       2
    locmatsiz, ngk, matsiz, mbsiz:     318     108     426     426
    iblk, mstart, mend, size(minm) (Mb):       1       1      20          1.30
    ---> rank, ikp, iq =        0       2       3
    locmatsiz, ngk, matsiz, mbsiz:     318     108     426     426
    iblk, mstart, mend, size(minm) (Mb):       1       1      20          1.30
    ---> rank, ikp, iq =        0       2       4
    locmatsiz, ngk, matsiz, mbsiz:     318     108     426     426
    iblk, mstart, mend, size(minm) (Mb):       1       1      20          1.30
    ---> rank, ikp, iq =        0       2       5
    locmatsiz, ngk, matsiz, mbsiz:     318     108     426     426
    iblk, mstart, mend, size(minm) (Mb):       1       1      20          1.30
    ---> rank, ikp, iq =        0       2       6
    locmatsiz, ngk, matsiz, mbsiz:     318     108     426     426
    iblk, mstart, mend, size(minm) (Mb):       1       1      20          1.30
    ---> rank, ikp, iq =        0       2       7
    locmatsiz, ngk, matsiz, mbsiz:     318     108     426     426
    iblk, mstart, mend, size(minm) (Mb):       1       1      20          1.30
    ---> rank, ikp, iq =        0       2       8
    locmatsiz, ngk, matsiz, mbsiz:     318     108     426     426
    iblk, mstart, mend, size(minm) (Mb):       1       1      20          1.30
    ---> rank, ikp, iq =        0       3       1
    locmatsiz, ngk, matsiz, mbsiz:     318     113     431     430
    iblk, mstart, mend, size(minm) (Mb):       1       1      20          1.31
    ---> rank, ikp, iq =        0       3       2
    locmatsiz, ngk, matsiz, mbsiz:     318     108     426     426
    iblk, mstart, mend, size(minm) (Mb):       1       1      20          1.30
    ---> rank, ikp, iq =        0       3       3
    locmatsiz, ngk, matsiz, mbsiz:     318     108     426     426
    iblk, mstart, mend, size(minm) (Mb):       1       1      20          1.30
    ---> rank, ikp, iq =        0       3       4
    locmatsiz, ngk, matsiz, mbsiz:     318     108     426     426
    iblk, mstart, mend, size(minm) (Mb):       1       1      20          1.30
    ---> rank, ikp, iq =        0       3       5
    locmatsiz, ngk, matsiz, mbsiz:     318     108     426     426
    iblk, mstart, mend, size(minm) (Mb):       1       1      20          1.30
    ---> rank, ikp, iq =        0       3       6
    locmatsiz, ngk, matsiz, mbsiz:     318     108     426     426
    iblk, mstart, mend, size(minm) (Mb):       1       1      20          1.30
    ---> rank, ikp, iq =        0       3       7
    locmatsiz, ngk, matsiz, mbsiz:     318     108     426     426
    iblk, mstart, mend, size(minm) (Mb):       1       1      20          1.30
    ---> rank, ikp, iq =        0       3       8
    locmatsiz, ngk, matsiz, mbsiz:     318     108     426     426
    iblk, mstart, mend, size(minm) (Mb):       1       1      20          1.30
 
 CPU time for vxnl (seconds)                :         7.97
 CPU time for vnlmat (seconds)              :         0.00
 CPU time for scf_cycle (seconds)           :         5.44
 
 Total energy                               :      -570.68348980
 _______________________________________________________________
 Fermi energy                               :         0.21287941
 Kinetic energy                             :       581.36290155
 Coulomb energy                             :     -1119.57918426
 Non-local exchange energy                  :        -1.85179046
 Exchange energy                            :       -31.37553360
 Correlation energy                         :        -1.09167348
 Sum of eigenvalues                         :      -316.64847454
 Effective potential energy                 :      -885.64828688
 Coulomb potential energy                   :      -844.41192312
 xc potential energy                        :       -41.23636377
 Hartree energy                             :       187.41973090
 Electron-nuclear energy                    :     -1219.25138491
 Nuclear-nuclear energy                     :       -87.74753025
 Madelung energy                            :      -697.37322270
 Core-electron kinetic energy               :       570.66518796
 
 DOS at Fermi energy (states/Ha/cell)       :         0.00000000
 
 Electron charges :
     core                                   :        20.00000000
     core leakage                           :         0.00453459
     valence                                :         8.00000000
     interstitial                           :         3.96934636
     charge in muffin-tin spheres :
                  atom     1    Si          :        12.01532682
                  atom     2    Si          :        12.01532682
     total charge in muffin-tins            :        24.03065364
     total charge                           :        28.00000000
 
 Estimated fundamental gap                  :         0.05687486
        valence-band maximum at    1      0.0000  0.0000  0.0000
     conduction-band minimum at    3      0.0000  0.5000  0.5000
 
 Charge distance                   (target) :  0.629179E-03 ( 0.100000E-04)
 
++++++++++++++++++++++++++++++++++++++++++++++++++++++++++++++++++++++++++++++++
+ Hybrids iteration number :    3                                               
++++++++++++++++++++++++++++++++++++++++++++++++++++++++++++++++++++++++++++++++
 
 Info(calc_vxnl):
    mdim, nblk, mblksiz:       20       1 1000000
    ---> rank, ikp, iq =        0       1       1
    locmatsiz, ngk, matsiz, mbsiz:     318     113     431     430
    iblk, mstart, mend, size(minm) (Mb):       1       1      20          1.31
    ---> rank, ikp, iq =        0       1       2
    locmatsiz, ngk, matsiz, mbsiz:     318     108     426     426
    iblk, mstart, mend, size(minm) (Mb):       1       1      20          1.30
    ---> rank, ikp, iq =        0       1       3
    locmatsiz, ngk, matsiz, mbsiz:     318     108     426     426
    iblk, mstart, mend, size(minm) (Mb):       1       1      20          1.30
    ---> rank, ikp, iq =        0       1       4
    locmatsiz, ngk, matsiz, mbsiz:     318     108     426     426
    iblk, mstart, mend, size(minm) (Mb):       1       1      20          1.30
    ---> rank, ikp, iq =        0       1       5
    locmatsiz, ngk, matsiz, mbsiz:     318     108     426     426
    iblk, mstart, mend, size(minm) (Mb):       1       1      20          1.30
    ---> rank, ikp, iq =        0       1       6
    locmatsiz, ngk, matsiz, mbsiz:     318     108     426     426
    iblk, mstart, mend, size(minm) (Mb):       1       1      20          1.30
    ---> rank, ikp, iq =        0       1       7
    locmatsiz, ngk, matsiz, mbsiz:     318     108     426     426
    iblk, mstart, mend, size(minm) (Mb):       1       1      20          1.30
    ---> rank, ikp, iq =        0       1       8
    locmatsiz, ngk, matsiz, mbsiz:     318     108     426     426
    iblk, mstart, mend, size(minm) (Mb):       1       1      20          1.30
    ---> rank, ikp, iq =        0       2       1
    locmatsiz, ngk, matsiz, mbsiz:     318     113     431     430
    iblk, mstart, mend, size(minm) (Mb):       1       1      20          1.31
    ---> rank, ikp, iq =        0       2       2
    locmatsiz, ngk, matsiz, mbsiz:     318     108     426     426
    iblk, mstart, mend, size(minm) (Mb):       1       1      20          1.30
    ---> rank, ikp, iq =        0       2       3
    locmatsiz, ngk, matsiz, mbsiz:     318     108     426     426
    iblk, mstart, mend, size(minm) (Mb):       1       1      20          1.30
    ---> rank, ikp, iq =        0       2       4
    locmatsiz, ngk, matsiz, mbsiz:     318     108     426     426
    iblk, mstart, mend, size(minm) (Mb):       1       1      20          1.30
    ---> rank, ikp, iq =        0       2       5
    locmatsiz, ngk, matsiz, mbsiz:     318     108     426     426
    iblk, mstart, mend, size(minm) (Mb):       1       1      20          1.30
    ---> rank, ikp, iq =        0       2       6
    locmatsiz, ngk, matsiz, mbsiz:     318     108     426     426
    iblk, mstart, mend, size(minm) (Mb):       1       1      20          1.30
    ---> rank, ikp, iq =        0       2       7
    locmatsiz, ngk, matsiz, mbsiz:     318     108     426     426
    iblk, mstart, mend, size(minm) (Mb):       1       1      20          1.30
    ---> rank, ikp, iq =        0       2       8
    locmatsiz, ngk, matsiz, mbsiz:     318     108     426     426
    iblk, mstart, mend, size(minm) (Mb):       1       1      20          1.30
    ---> rank, ikp, iq =        0       3       1
    locmatsiz, ngk, matsiz, mbsiz:     318     113     431     430
    iblk, mstart, mend, size(minm) (Mb):       1       1      20          1.31
    ---> rank, ikp, iq =        0       3       2
    locmatsiz, ngk, matsiz, mbsiz:     318     108     426     426
    iblk, mstart, mend, size(minm) (Mb):       1       1      20          1.30
    ---> rank, ikp, iq =        0       3       3
    locmatsiz, ngk, matsiz, mbsiz:     318     108     426     426
    iblk, mstart, mend, size(minm) (Mb):       1       1      20          1.30
    ---> rank, ikp, iq =        0       3       4
    locmatsiz, ngk, matsiz, mbsiz:     318     108     426     426
    iblk, mstart, mend, size(minm) (Mb):       1       1      20          1.30
    ---> rank, ikp, iq =        0       3       5
    locmatsiz, ngk, matsiz, mbsiz:     318     108     426     426
    iblk, mstart, mend, size(minm) (Mb):       1       1      20          1.30
    ---> rank, ikp, iq =        0       3       6
    locmatsiz, ngk, matsiz, mbsiz:     318     108     426     426
    iblk, mstart, mend, size(minm) (Mb):       1       1      20          1.30
    ---> rank, ikp, iq =        0       3       7
    locmatsiz, ngk, matsiz, mbsiz:     318     108     426     426
    iblk, mstart, mend, size(minm) (Mb):       1       1      20          1.30
    ---> rank, ikp, iq =        0       3       8
    locmatsiz, ngk, matsiz, mbsiz:     318     108     426     426
    iblk, mstart, mend, size(minm) (Mb):       1       1      20          1.30
 
 CPU time for vxnl (seconds)                :         7.97
 CPU time for vnlmat (seconds)              :         0.00
 CPU time for scf_cycle (seconds)           :         2.96
 
 Total energy                               :      -570.68306181
 _______________________________________________________________
 Fermi energy                               :         0.21301222
 Kinetic energy                             :       581.36017484
 Coulomb energy                             :     -1119.57663878
 Non-local exchange energy                  :        -1.85019139
 Exchange energy                            :       -31.37491336
 Correlation energy                         :        -1.09168450
 Sum of eigenvalues                         :      -316.64771793
 Effective potential energy                 :      -885.64928049
 Coulomb potential energy                   :      -844.41319080
 xc potential energy                        :       -41.23608969
 Hartree energy                             :       187.41591773
 Electron-nuclear energy                    :     -1219.24502627
 Nuclear-nuclear energy                     :       -87.74753025
 Madelung energy                            :      -697.37004338
 Core-electron kinetic energy               :       570.66518796
 
 DOS at Fermi energy (states/Ha/cell)       :         0.00000000
 
 Electron charges :
     core                                   :        20.00000000
     core leakage                           :         0.00453459
     valence                                :         8.00000000
     interstitial                           :         3.97011937
     charge in muffin-tin spheres :
                  atom     1    Si          :        12.01494032
                  atom     2    Si          :        12.01494032
     total charge in muffin-tins            :        24.02988063
     total charge                           :        28.00000000
 
 Estimated fundamental gap                  :         0.05687558
        valence-band maximum at    1      0.0000  0.0000  0.0000
     conduction-band minimum at    3      0.0000  0.5000  0.5000
 
 Charge distance                   (target) :  0.607713E-04 ( 0.100000E-04)
 
++++++++++++++++++++++++++++++++++++++++++++++++++++++++++++++++++++++++++++++++
+ Hybrids iteration number :    4                                               
++++++++++++++++++++++++++++++++++++++++++++++++++++++++++++++++++++++++++++++++
 
 Info(calc_vxnl):
    mdim, nblk, mblksiz:       20       1 1000000
    ---> rank, ikp, iq =        0       1       1
    locmatsiz, ngk, matsiz, mbsiz:     318     113     431     430
    iblk, mstart, mend, size(minm) (Mb):       1       1      20          1.31
    ---> rank, ikp, iq =        0       1       2
    locmatsiz, ngk, matsiz, mbsiz:     318     108     426     426
    iblk, mstart, mend, size(minm) (Mb):       1       1      20          1.30
    ---> rank, ikp, iq =        0       1       3
    locmatsiz, ngk, matsiz, mbsiz:     318     108     426     426
    iblk, mstart, mend, size(minm) (Mb):       1       1      20          1.30
    ---> rank, ikp, iq =        0       1       4
    locmatsiz, ngk, matsiz, mbsiz:     318     108     426     426
    iblk, mstart, mend, size(minm) (Mb):       1       1      20          1.30
    ---> rank, ikp, iq =        0       1       5
    locmatsiz, ngk, matsiz, mbsiz:     318     108     426     426
    iblk, mstart, mend, size(minm) (Mb):       1       1      20          1.30
    ---> rank, ikp, iq =        0       1       6
    locmatsiz, ngk, matsiz, mbsiz:     318     108     426     426
    iblk, mstart, mend, size(minm) (Mb):       1       1      20          1.30
    ---> rank, ikp, iq =        0       1       7
    locmatsiz, ngk, matsiz, mbsiz:     318     108     426     426
    iblk, mstart, mend, size(minm) (Mb):       1       1      20          1.30
    ---> rank, ikp, iq =        0       1       8
    locmatsiz, ngk, matsiz, mbsiz:     318     108     426     426
    iblk, mstart, mend, size(minm) (Mb):       1       1      20          1.30
    ---> rank, ikp, iq =        0       2       1
    locmatsiz, ngk, matsiz, mbsiz:     318     113     431     430
    iblk, mstart, mend, size(minm) (Mb):       1       1      20          1.31
    ---> rank, ikp, iq =        0       2       2
    locmatsiz, ngk, matsiz, mbsiz:     318     108     426     426
    iblk, mstart, mend, size(minm) (Mb):       1       1      20          1.30
    ---> rank, ikp, iq =        0       2       3
    locmatsiz, ngk, matsiz, mbsiz:     318     108     426     426
    iblk, mstart, mend, size(minm) (Mb):       1       1      20          1.30
    ---> rank, ikp, iq =        0       2       4
    locmatsiz, ngk, matsiz, mbsiz:     318     108     426     426
    iblk, mstart, mend, size(minm) (Mb):       1       1      20          1.30
    ---> rank, ikp, iq =        0       2       5
    locmatsiz, ngk, matsiz, mbsiz:     318     108     426     426
    iblk, mstart, mend, size(minm) (Mb):       1       1      20          1.30
    ---> rank, ikp, iq =        0       2       6
    locmatsiz, ngk, matsiz, mbsiz:     318     108     426     426
    iblk, mstart, mend, size(minm) (Mb):       1       1      20          1.30
    ---> rank, ikp, iq =        0       2       7
    locmatsiz, ngk, matsiz, mbsiz:     318     108     426     426
    iblk, mstart, mend, size(minm) (Mb):       1       1      20          1.30
    ---> rank, ikp, iq =        0       2       8
    locmatsiz, ngk, matsiz, mbsiz:     318     108     426     426
    iblk, mstart, mend, size(minm) (Mb):       1       1      20          1.30
    ---> rank, ikp, iq =        0       3       1
    locmatsiz, ngk, matsiz, mbsiz:     318     113     431     430
    iblk, mstart, mend, size(minm) (Mb):       1       1      20          1.31
    ---> rank, ikp, iq =        0       3       2
    locmatsiz, ngk, matsiz, mbsiz:     318     108     426     426
    iblk, mstart, mend, size(minm) (Mb):       1       1      20          1.30
    ---> rank, ikp, iq =        0       3       3
    locmatsiz, ngk, matsiz, mbsiz:     318     108     426     426
    iblk, mstart, mend, size(minm) (Mb):       1       1      20          1.30
    ---> rank, ikp, iq =        0       3       4
    locmatsiz, ngk, matsiz, mbsiz:     318     108     426     426
    iblk, mstart, mend, size(minm) (Mb):       1       1      20          1.30
    ---> rank, ikp, iq =        0       3       5
    locmatsiz, ngk, matsiz, mbsiz:     318     108     426     426
    iblk, mstart, mend, size(minm) (Mb):       1       1      20          1.30
    ---> rank, ikp, iq =        0       3       6
    locmatsiz, ngk, matsiz, mbsiz:     318     108     426     426
    iblk, mstart, mend, size(minm) (Mb):       1       1      20          1.30
    ---> rank, ikp, iq =        0       3       7
    locmatsiz, ngk, matsiz, mbsiz:     318     108     426     426
    iblk, mstart, mend, size(minm) (Mb):       1       1      20          1.30
    ---> rank, ikp, iq =        0       3       8
    locmatsiz, ngk, matsiz, mbsiz:     318     108     426     426
    iblk, mstart, mend, size(minm) (Mb):       1       1      20          1.30
 
 CPU time for vxnl (seconds)                :         7.98
 CPU time for vnlmat (seconds)              :         0.00
 CPU time for scf_cycle (seconds)           :         2.22
 
 Total energy                               :      -570.68302127
 _______________________________________________________________
 Fermi energy                               :         0.21303193
 Kinetic energy                             :       581.35980321
 Coulomb energy                             :     -1119.57629247
 Non-local exchange energy                  :        -1.85004043
 Exchange energy                            :       -31.37484609
 Correlation energy                         :        -1.09168592
 Sum of eigenvalues                         :      -316.64763790
 Effective potential energy                 :      -885.64940604
 Coulomb potential energy                   :      -844.41335304
 xc potential energy                        :       -41.23605300
 Hartree energy                             :       187.41540919
 Electron-nuclear energy                    :     -1219.24417142
 Nuclear-nuclear energy                     :       -87.74753025
 Madelung energy                            :      -697.36961595
 Core-electron kinetic energy               :       570.66518796
 
 DOS at Fermi energy (states/Ha/cell)       :         0.00000000
 
 Electron charges :
     core                                   :        20.00000000
     core leakage                           :         0.00453459
     valence                                :         8.00000000
     interstitial                           :         3.97022226
     charge in muffin-tin spheres :
                  atom     1    Si          :        12.01488887
                  atom     2    Si          :        12.01488887
     total charge in muffin-tins            :        24.02977774
     total charge                           :        28.00000000
 
 Estimated fundamental gap                  :         0.05685462
        valence-band maximum at    1      0.0000  0.0000  0.0000
     conduction-band minimum at    3      0.0000  0.5000  0.5000
 
 Charge distance                   (target) :  0.849107E-05 ( 0.100000E-04)
 
++++++++++++++++++++++++++++++++++++++++++++++++++++++++++++++++++++++++++++++++
Convergence target is reached                                                   
++++++++++++++++++++++++++++++++++++++++++++++++++++++++++++++++++++++++++++++++
 
++++++++++++++++++++++++++++++++++++++++++++++++++++++++++++++++++++++++++++++++
+ Hybrids module stopped                                                        
++++++++++++++++++++++++++++++++++++++++++++++++++++++++++++++++++++++++++++++++
 
--------------------------------------------------------------------------------
Timings (seconds)                                                               
--------------------------------------------------------------------------------
 initialisation                        :         0.42
            - init0                    :         0.24
            - init1                    :         0.03
            - rhoinit                  :         0.01
            - potential initialisation :         0.12
            - others                   :         0.01
 Hamiltonian and overlap matrix set up :         0.16
            - hmlaan                   :         0.07
            - hmlalon                  :         0.01
            - hmllolon                 :         0.00
            - olpaan                   :         0.02
            - olpalon                  :         0.00
            - olplolon                 :         0.00
            - hmlistln                 :         0.01
            - olpistln                 :         0.01
 first-variational secular equation    :         0.13
 charge density calculation            :         0.48
 potential calculation                 :         9.91
 muffin-tin manipulations              :         6.51
 APW matching                          :         0.05
 disk reads/writes                     :         0.54
 mixing efforts                        :         0.01
 sum                                   :        18.21
 Dirac eqn solver                      :         0.12
 Rel. Schroedinger eqn solver          :         0.08
 Total time spent in radial solvers    :         0.20
 
 Total time spent (seconds)            :        54.81
 
================================================================================
EXCITING OXYGEN stopped                                                         
================================================================================
